
.Version 8.10.2 of ABINIT 
.(MPI version, prepared for a x86_64_linux_intel18.0 computer) 

.Copyright (C) 1998-2018 ABINIT group . 
 ABINIT comes with ABSOLUTELY NO WARRANTY.
 It is free software, and you are welcome to redistribute it
 under certain conditions (GNU General Public License,
 see ~abinit/COPYING or http://www.gnu.org/copyleft/gpl.txt).

 ABINIT is a project of the Universite Catholique de Louvain,
 Corning Inc. and other collaborators, see ~abinit/doc/developers/contributors.txt .
 Please read https://docs.abinit.org/theory/acknowledgments for suggested
 acknowledgments of the ABINIT effort.
 For more information, see https://www.abinit.org .

.Starting date : Thu 18 Oct 2018.
- ( at 16h46 )
  
- input  file    -> tdmft_2.in
- output file    -> tdmft_2.out
- root for input  files -> tdmft_2i
- root for output files -> tdmft_2o
 
 
 DATASET    1 : space group Pm -3 m (#221); Bravais cP (primitive cubic)
================================================================================
 Values of the parameters that define the memory need for DATASET  1.
     intxc =       0    ionmov =       0      iscf =      17    lmnmax =      22
     lnmax =       8     mgfft =      24  mpssoang =       3    mqgrid =    3001
     natom =       5  nloc_mem =       2    nspden =       1   nspinor =       1
    nsppol =       1      nsym =      48    n1xccc =       1    ntypat =       3
    occopt =       3   xclevel =       1
-    mband =          30        mffmem =           1         mkmem =          10
       mpw =         770          nfft =       13824          nkpt =          10
 PAW method is used; the additional fine FFT grid is defined by:
   mgfftf=        30    nfftf =     27000
================================================================================
P This job should need less than                      18.759 Mbytes of memory.
  Rough estimation (10% accuracy) of disk space for files :
_ WF disk file :      3.527 Mbytes ; DEN or POT disk file :      0.208 Mbytes.
================================================================================
 
 
 DATASET    2 : space group Pm -3 m (#221); Bravais cP (primitive cubic)
================================================================================
 Values of the parameters that define the memory need for DATASET  2.
     intxc =       0    ionmov =       0      iscf =      17    lmnmax =      22
     lnmax =       8     mgfft =      24  mpssoang =       3    mqgrid =    3001
     natom =       5  nloc_mem =       2    nspden =       1   nspinor =       1
    nsppol =       1      nsym =      48    n1xccc =       1    ntypat =       3
    occopt =       3   xclevel =       1
-    mband =          30        mffmem =           1         mkmem =          10
       mpw =         770          nfft =       13824          nkpt =          10
 PAW method is used; the additional fine FFT grid is defined by:
   mgfftf=        30    nfftf =     27000
================================================================================
P This job should need less than                      18.759 Mbytes of memory.
  Rough estimation (10% accuracy) of disk space for files :
_ WF disk file :      3.527 Mbytes ; DEN or POT disk file :      0.208 Mbytes.
================================================================================
 
--------------------------------------------------------------------------------
------------- Echo of variables that govern the present computation ------------
--------------------------------------------------------------------------------
-
- outvars: echo of selected default values                                      
-   iomode0 =  0 , fftalg0 =312 , wfoptalg0 = 10
-
- outvars: echo of global parameters not present in the input file              
-  max_nthreads =    0
-
 -outvars: echo values of preprocessed input variables --------
            acell      7.2605000000E+00  7.2605000000E+00  7.2605000000E+00 Bohr
              amu      5.09415000E+01  8.76200000E+01  1.59994000E+01
        dmatpuopt           1
        dmftbandf1          0
        dmftbandf2         23
        dmftbandi1          0
        dmftbandi2         21
        dmft_iter1          0
        dmft_iter2          1
        dmft_mxsf1     3.0000000000E-01
        dmft_mxsf2     7.0000000000E-01
        dmft_nwli1          0
        dmft_nwli2     100000
        dmft_nwlo1          0
        dmft_nwlo2        100
        dmft_rslf1          0
        dmft_rslf2          1
             ecut      1.20000000E+01 Hartree
-          fftalg         312
           getwfk          -1
           istwfk        0    0    0    0    0    0    0    0    1    1
              ixc           7
           jdtset        1    2
            jpawu1     0.00000000E+00  0.00000000E+00  0.00000000E+00 Hartree
            jpawu2     2.78682384E-02  0.00000000E+00  0.00000000E+00 Hartree
              kpt     -1.66666667E-01 -3.33333333E-01  0.00000000E+00
                      -1.66666667E-01 -1.66666667E-01  1.66666667E-01
                      -3.33333333E-01  5.00000000E-01  0.00000000E+00
                      -1.66666667E-01  5.00000000E-01  1.66666667E-01
                      -3.33333333E-01 -3.33333333E-01  1.66666667E-01
                      -1.66666667E-01  0.00000000E+00  0.00000000E+00
                       5.00000000E-01  5.00000000E-01  1.66666667E-01
                      -3.33333333E-01  5.00000000E-01  3.33333333E-01
                       5.00000000E-01  0.00000000E+00  0.00000000E+00
                       5.00000000E-01  5.00000000E-01  5.00000000E-01
         kptrlatt        3   -3    3     -3    3    3     -3   -3    3
          kptrlen      3.77266647E+01
            lpawu           2      -1      -1
P           mkmem          10
            natom           5
            nband          30
           ndtset           2
            ngfft          24      24      24
          ngfftdg          30      30      30
             nkpt          10
            nline1          5
            nline2         10
           nnsclo1          5
           nnsclo2         10
            nstep1         30
            nstep2         10
             nsym          48
           ntypat           3
              occ      2.000000  2.000000  2.000000  2.000000  2.000000  2.000000
                       2.000000  2.000000  2.000000  2.000000  2.000000  2.000000
                       2.000000  2.000000  2.000000  2.000000  2.000000  2.000000
                       2.000000  2.000000  1.000000  0.000000  0.000000  0.000000
                       0.000000  0.000000  0.000000  0.000000  0.000000  0.000000
                       2.000000  2.000000  2.000000  2.000000  2.000000  2.000000
                       2.000000  2.000000  2.000000  2.000000  2.000000  2.000000
                       2.000000  2.000000  2.000000  2.000000  2.000000  2.000000
                       2.000000  2.000000  1.000000  0.000000  0.000000  0.000000
                       0.000000  0.000000  0.000000  0.000000  0.000000  0.000000
                       2.000000  2.000000  2.000000  2.000000  2.000000  2.000000
                       2.000000  2.000000  2.000000  2.000000  2.000000  2.000000
                       2.000000  2.000000  2.000000  2.000000  2.000000  2.000000
                       2.000000  2.000000  1.000000  0.000000  0.000000  0.000000
                       0.000000  0.000000  0.000000  0.000000  0.000000  0.000000
                       2.000000  2.000000  2.000000  2.000000  2.000000  2.000000
                       2.000000  2.000000  2.000000  2.000000  2.000000  2.000000
                       2.000000  2.000000  2.000000  2.000000  2.000000  2.000000
                       2.000000  2.000000  1.000000  0.000000  0.000000  0.000000
                       0.000000  0.000000  0.000000  0.000000  0.000000  0.000000
                       2.000000  2.000000  2.000000  2.000000  2.000000  2.000000
                       2.000000  2.000000  2.000000  2.000000  2.000000  2.000000
                       2.000000  2.000000  2.000000  2.000000  2.000000  2.000000
                       2.000000  2.000000  1.000000  0.000000  0.000000  0.000000
                       0.000000  0.000000  0.000000  0.000000  0.000000  0.000000
                       2.000000  2.000000  2.000000  2.000000  2.000000  2.000000
                       2.000000  2.000000  2.000000  2.000000  2.000000  2.000000
                       2.000000  2.000000  2.000000  2.000000  2.000000  2.000000
                       2.000000  2.000000  1.000000  0.000000  0.000000  0.000000
                       0.000000  0.000000  0.000000  0.000000  0.000000  0.000000
                       2.000000  2.000000  2.000000  2.000000  2.000000  2.000000
                       2.000000  2.000000  2.000000  2.000000  2.000000  2.000000
                       2.000000  2.000000  2.000000  2.000000  2.000000  2.000000
                       2.000000  2.000000  1.000000  0.000000  0.000000  0.000000
                       0.000000  0.000000  0.000000  0.000000  0.000000  0.000000
                       2.000000  2.000000  2.000000  2.000000  2.000000  2.000000
                       2.000000  2.000000  2.000000  2.000000  2.000000  2.000000
                       2.000000  2.000000  2.000000  2.000000  2.000000  2.000000
                       2.000000  2.000000  1.000000  0.000000  0.000000  0.000000
                       0.000000  0.000000  0.000000  0.000000  0.000000  0.000000
                       2.000000  2.000000  2.000000  2.000000  2.000000  2.000000
                       2.000000  2.000000  2.000000  2.000000  2.000000  2.000000
                       2.000000  2.000000  2.000000  2.000000  2.000000  2.000000
                       2.000000  2.000000  1.000000  0.000000  0.000000  0.000000
                       0.000000  0.000000  0.000000  0.000000  0.000000  0.000000
                       2.000000  2.000000  2.000000  2.000000  2.000000  2.000000
                       2.000000  2.000000  2.000000  2.000000  2.000000  2.000000
                       2.000000  2.000000  2.000000  2.000000  2.000000  2.000000
                       2.000000  2.000000  1.000000  0.000000  0.000000  0.000000
                       0.000000  0.000000  0.000000  0.000000  0.000000  0.000000
           occopt           3
        optforces1          2
        optforces2          0
        pawecutdg      2.00000000E+01 Hartree
        pawprtvol           3
           prtvol           4
           shiftk      5.00000000E-01  5.00000000E-01  5.00000000E-01
          spgroup         221
           symrel      1  0  0   0  1  0   0  0  1      -1  0  0   0 -1  0   0  0 -1
                      -1  0  0   0  1  0   0  0 -1       1  0  0   0 -1  0   0  0  1
                      -1  0  0   0 -1  0   0  0  1       1  0  0   0  1  0   0  0 -1
                       1  0  0   0 -1  0   0  0 -1      -1  0  0   0  1  0   0  0  1
                       0  1  0   1  0  0   0  0  1       0 -1  0  -1  0  0   0  0 -1
                       0 -1  0   1  0  0   0  0 -1       0  1  0  -1  0  0   0  0  1
                       0 -1  0  -1  0  0   0  0  1       0  1  0   1  0  0   0  0 -1
                       0  1  0  -1  0  0   0  0 -1       0 -1  0   1  0  0   0  0  1
                       0  0  1   1  0  0   0  1  0       0  0 -1  -1  0  0   0 -1  0
                       0  0 -1   1  0  0   0 -1  0       0  0  1  -1  0  0   0  1  0
                       0  0 -1  -1  0  0   0  1  0       0  0  1   1  0  0   0 -1  0
                       0  0  1  -1  0  0   0 -1  0       0  0 -1   1  0  0   0  1  0
                       1  0  0   0  0  1   0  1  0      -1  0  0   0  0 -1   0 -1  0
                      -1  0  0   0  0  1   0 -1  0       1  0  0   0  0 -1   0  1  0
                      -1  0  0   0  0 -1   0  1  0       1  0  0   0  0  1   0 -1  0
                       1  0  0   0  0 -1   0 -1  0      -1  0  0   0  0  1   0  1  0
                       0  1  0   0  0  1   1  0  0       0 -1  0   0  0 -1  -1  0  0
                       0 -1  0   0  0  1  -1  0  0       0  1  0   0  0 -1   1  0  0
                       0 -1  0   0  0 -1   1  0  0       0  1  0   0  0  1  -1  0  0
                       0  1  0   0  0 -1  -1  0  0       0 -1  0   0  0  1   1  0  0
                       0  0  1   0  1  0   1  0  0       0  0 -1   0 -1  0  -1  0  0
                       0  0 -1   0  1  0  -1  0  0       0  0  1   0 -1  0   1  0  0
                       0  0 -1   0 -1  0   1  0  0       0  0  1   0  1  0  -1  0  0
                       0  0  1   0 -1  0  -1  0  0       0  0 -1   0  1  0   1  0  0
           tolvrs      1.00000000E-07
           tsmear      3.80017850E-03 Hartree
            typat      1  2  3  3  3
            upawu1     0.00000000E+00  0.00000000E+00  0.00000000E+00 Hartree
            upawu2     1.15147886E-01  0.00000000E+00  0.00000000E+00 Hartree
          usedmft1          0
          usedmft2          1
          usepawu1          1
          usepawu2         10
           useylm           1
              wtk        0.22222    0.07407    0.11111    0.11111    0.22222    0.05556
                         0.05556    0.11111    0.02778    0.00926
           xangst      0.0000000000E+00  0.0000000000E+00  0.0000000000E+00
                       1.9210455615E+00  1.9210455615E+00  1.9210455615E+00
                       1.9210455615E+00  0.0000000000E+00  0.0000000000E+00
                       0.0000000000E+00  1.9210455615E+00  0.0000000000E+00
                       0.0000000000E+00  0.0000000000E+00  1.9210455615E+00
            xcart      0.0000000000E+00  0.0000000000E+00  0.0000000000E+00
                       3.6302500000E+00  3.6302500000E+00  3.6302500000E+00
                       3.6302500000E+00  0.0000000000E+00  0.0000000000E+00
                       0.0000000000E+00  3.6302500000E+00  0.0000000000E+00
                       0.0000000000E+00  0.0000000000E+00  3.6302500000E+00
             xred      0.0000000000E+00  0.0000000000E+00  0.0000000000E+00
                       5.0000000000E-01  5.0000000000E-01  5.0000000000E-01
                       5.0000000000E-01  0.0000000000E+00  0.0000000000E+00
                       0.0000000000E+00  5.0000000000E-01  0.0000000000E+00
                       0.0000000000E+00  0.0000000000E+00  5.0000000000E-01
            znucl       23.00000   38.00000    8.00000
 
================================================================================
 
 chkinp: Checking input parameters for consistency, jdtset=   1.
 
 chkinp: Checking input parameters for consistency, jdtset=   2.
 
================================================================================
== DATASET  1 ==================================================================
-   nproc =    1
 
 Exchange-correlation functional for the present dataset will be:
  LDA: Perdew-Wang 92 LSD fit to Ceperley-Alder data - ixc=7
 Citation for XC functional:
  J.P.Perdew and Y.Wang, PRB 45, 13244 (1992)
 
 Real(R)+Recip(G) space primitive vectors, cartesian coordinates (Bohr,Bohr^-1):
 R(1)=  7.2605000  0.0000000  0.0000000  G(1)=  0.1377316  0.0000000  0.0000000
 R(2)=  0.0000000  7.2605000  0.0000000  G(2)=  0.0000000  0.1377316  0.0000000
 R(3)=  0.0000000  0.0000000  7.2605000  G(3)=  0.0000000  0.0000000  0.1377316
 Unit cell volume ucvol=  3.8273624E+02 bohr^3
 Angles (23,13,12)=  9.00000000E+01  9.00000000E+01  9.00000000E+01 degrees
 
 Coarse grid specifications (used for wave-functions):
 
 getcut: wavevector=  0.0000  0.0000  0.0000  ngfft=  24  24  24
         ecut(hartree)=     12.000   => boxcut(ratio)=   2.11977
 
 Fine grid specifications (used for densities):
 
 getcut: wavevector=  0.0000  0.0000  0.0000  ngfft=  30  30  30
         ecut(hartree)=     20.000   => boxcut(ratio)=   2.05246
 
--- Pseudopotential description ------------------------------------------------
- pspini: atom type   1  psp file is ../../../Psps_for_tests/23v.paw
- pspatm: opening atomic psp file    ../../../Psps_for_tests/23v.paw
- Paw atomic data for element V - Generated by AtomPAW + AtomPAW2Abinit v3.2.0
- 23.00000  13.00000  20070917                znucl, zion, pspdat
    7    7    2    0      1505   0.00000      pspcod,pspxc,lmax,lloc,mmax,r2well
 Pseudopotential format is: paw3
 basis_size (lnmax)=  8 (lmn_size= 22), orbitals=   0   0   0   1   1   1   2   2
 Spheres core radius: rc_sph= 2.35000000
 3 radial meshes are used:
  - mesh 1: r(i)=AA*[exp(BB*(i-1))-1], size=1505 , AA= 0.26380E-03 BB= 0.60673E-02
  - mesh 2: r(i)=AA*[exp(BB*(i-1))-1], size=1500 , AA= 0.26380E-03 BB= 0.60673E-02
  - mesh 3: r(i)=AA*[exp(BB*(i-1))-1], size=1738 , AA= 0.26380E-03 BB= 0.60673E-02
 Shapefunction is SIN type: shapef(r)=[sin(pi*r/rshp)/(pi*r/rshp)]**2
 Radius for shape functions =  2.00701120
 Radial grid used for partial waves is grid 1
 Radial grid used for projectors is grid  2
 Radial grid used for (t)core density is grid 1
 Radial grid used for Vloc is grid 3
 Compensation charge density is taken into account in XC energy/potential
 pspatm: atomic psp has been read  and splines computed
 
- pspini: atom type   2  psp file is ../../../Psps_for_tests/38sr.paw
- pspatm: opening atomic psp file    ../../../Psps_for_tests/38sr.paw
- Paw atomic data for element Sr - Generated by AtomPAW + AtomPAW2Abinit v3.2.0
- 38.00000  10.00000  20070917                znucl, zion, pspdat
    7    7    2    0      1068   0.00000      pspcod,pspxc,lmax,lloc,mmax,r2well
 Pseudopotential format is: paw3
 basis_size (lnmax)=  6 (lmn_size= 18), orbitals=   0   0   1   1   2   2
 Spheres core radius: rc_sph= 1.92519986
 4 radial meshes are used:
  - mesh 1: r(i)=AA*[exp(BB*(i-1))-1], size=1068 , AA= 0.22443E-03 BB= 0.85283E-02
  - mesh 2: r(i)=AA*[exp(BB*(i-1))-1], size=1063 , AA= 0.22443E-03 BB= 0.85283E-02
  - mesh 3: r(i)=AA*[exp(BB*(i-1))-1], size=1134 , AA= 0.22443E-03 BB= 0.85283E-02
  - mesh 4: r(i)=AA*[exp(BB*(i-1))-1], size=1256 , AA= 0.22443E-03 BB= 0.85283E-02
 Shapefunction is SIN type: shapef(r)=[sin(pi*r/rshp)/(pi*r/rshp)]**2
 Radius for shape functions =  1.81361893
 Radial grid used for partial waves is grid 1
 Radial grid used for projectors is grid  2
 Radial grid used for (t)core density is grid 3
 Radial grid used for Vloc is grid 4
 Compensation charge density is taken into account in XC energy/potential
 pspatm: atomic psp has been read  and splines computed
 
- pspini: atom type   3  psp file is ../../../Psps_for_tests/8o.paw
- pspatm: opening atomic psp file    ../../../Psps_for_tests/8o.paw
- Paw atomic data for element O - Generated by AtomPAW (N. Holzwarth)
-  8.00000   6.00000  20040423                znucl, zion, pspdat
    7    7    1    0       350   0.00000      pspcod,pspxc,lmax,lloc,mmax,r2well
 Pseudopotential format is: paw2
 basis_size (lnmax)=  4 (lmn_size=  8), orbitals=   0   0   1   1
 Spheres core radius: rc_sph= 1.41000000
 2 radial meshes are used:
  - mesh 1: r(i)=AA*exp(BB*(i-2)), size= 350 , AA= 0.72362E-05 BB= 0.35000E-01
  - mesh 2: r(i)=step*(i-1), size= 566 , step= 0.25000E-02
 Shapefunction is SIN type: shapef(r)=[sin(pi*r/rshp)/(pi*r/rshp)]**2
 Radius for shape functions = sphere core radius
 Radial grid used for partial waves is grid 1
 Radial grid used for projectors is grid  2
 Radial grid used for (t)core density is grid 1
 Radial grid used for Vloc is grid 1
 Compensation charge density is taken into account in XC energy/potential
 pspatm: atomic psp has been read  and splines computed
 
   2.50191820E+03                                ecore*ucvol(ha*bohr**3)
--------------------------------------------------------------------------------
 
P newkpt: treating     30 bands with npw=     758 for ikpt=   1 by node    0
P newkpt: treating     30 bands with npw=     748 for ikpt=   2 by node    0
P newkpt: treating     30 bands with npw=     770 for ikpt=   3 by node    0
P newkpt: treating     30 bands with npw=     768 for ikpt=   4 by node    0
P newkpt: treating     30 bands with npw=     756 for ikpt=   5 by node    0
P newkpt: treating     30 bands with npw=     759 for ikpt=   6 by node    0
P newkpt: treating     30 bands with npw=     760 for ikpt=   7 by node    0
P newkpt: treating     30 bands with npw=     748 for ikpt=   8 by node    0
P newkpt: treating     30 bands with npw=     756 for ikpt=   9 by node    0
P newkpt: treating     30 bands with npw=     720 for ikpt=  10 by node    0
_setup2: Arith. and geom. avg. npw (full set) are     757.907     757.867
 
 
 ******************************************
 LDA+U Method used: FLL
 ******************************************
 
================================================================================
 
     iter   Etot(hartree)      deltaE(h)  residm     nres2
 ETOT  1  -151.95301497901    -1.520E+02 3.185E-02 4.007E+01
 ETOT  2  -151.53298587709     4.200E-01 2.669E-04 5.126E+00
 ETOT  3  -151.55109398640    -1.811E-02 9.864E-05 3.664E+00
 ETOT  4  -151.52790326560     2.319E-02 4.953E-05 2.013E+00
 ETOT  5  -151.51717627328     1.073E-02 2.201E-05 1.392E-02
 ETOT  6  -151.51702252855     1.537E-04 5.394E-07 2.508E-03
 ETOT  7  -151.51701848300     4.046E-06 5.565E-08 8.774E-05
 ETOT  8  -151.51701782106     6.619E-07 1.412E-08 3.393E-06
 ETOT  9  -151.51701776792     5.314E-08 1.368E-09 5.048E-07
 ETOT 10  -151.51701776455     3.374E-09 4.747E-10 8.048E-09
 
 At SCF step   10       nres2   =  8.05E-09 < tolvrs=  1.00E-07 =>converged.
 
 Cartesian components of stress tensor (hartree/bohr^3)
  sigma(1 1)=  3.53331024E-03  sigma(3 2)=  0.00000000E+00
  sigma(2 2)=  3.53331024E-03  sigma(3 1)=  0.00000000E+00
  sigma(3 3)=  3.53331024E-03  sigma(2 1)=  0.00000000E+00
 
 Integrated electronic density in atomic spheres:
 ------------------------------------------------
 Atom  Sphere_radius  Integrated_density
    1        2.35000         11.95475605
    2        1.92520          6.48719794
    3        1.41000          4.46564821
    4        1.41000          4.46564821
    5        1.41000          4.46564821
 
 PAW TEST:
 ==== Compensation charge inside spheres ============
 The following values must be close to each other ...
 Compensation charge over spherical meshes =      5.654661811335552
 Compensation charge over fine fft grid    =      5.654689899664695
 
 ==== Results concerning PAW augmentation regions ====
 
 Total pseudopotential strength Dij (hartree):
 Atom #  1
  -1.47708   0.31426  -1.68918   0.00000   0.00000   0.00000   0.00000   0.00000   0.00000   0.00000   0.00000   0.00000 ...
   0.31426   0.16814  -1.52003   0.00000   0.00000   0.00000   0.00000   0.00000   0.00000   0.00000   0.00000   0.00000 ...
  -1.68918  -1.52003  15.94262   0.00000   0.00000   0.00000   0.00000   0.00000   0.00000   0.00000   0.00000   0.00000 ...
   0.00000   0.00000   0.00000  -1.07512   0.00000   0.00000   0.07649   0.00000   0.00000   0.07224   0.00000   0.00000 ...
   0.00000   0.00000   0.00000   0.00000  -1.07512   0.00000   0.00000   0.07649   0.00000   0.00000   0.07224   0.00000 ...
   0.00000   0.00000   0.00000   0.00000   0.00000  -1.07512   0.00000   0.00000   0.07649   0.00000   0.00000   0.07224 ...
   0.00000   0.00000   0.00000   0.07649   0.00000   0.00000   0.03922   0.00000   0.00000  -0.16598   0.00000   0.00000 ...
   0.00000   0.00000   0.00000   0.00000   0.07649   0.00000   0.00000   0.03922   0.00000   0.00000  -0.16598   0.00000 ...
   0.00000   0.00000   0.00000   0.00000   0.00000   0.07649   0.00000   0.00000   0.03922   0.00000   0.00000  -0.16598 ...
   0.00000   0.00000   0.00000   0.07224   0.00000   0.00000  -0.16598   0.00000   0.00000   2.29433   0.00000   0.00000 ...
   0.00000   0.00000   0.00000   0.00000   0.07224   0.00000   0.00000  -0.16598   0.00000   0.00000   2.29433   0.00000 ...
   0.00000   0.00000   0.00000   0.00000   0.00000   0.07224   0.00000   0.00000  -0.16598   0.00000   0.00000   2.29433 ...
   ...  only 12  components have been written...
 Atom #  5
   0.04183   0.09121   0.00000   0.00000   0.00000   0.00000   0.00000   0.00000
   0.09121   0.00943   0.00000   0.00000   0.00000   0.00000   0.00000   0.00000
   0.00000   0.00000  -0.70897   0.00000   0.00000   0.06272   0.00000   0.00000
   0.00000   0.00000   0.00000  -0.71017   0.00000   0.00000   0.06192   0.00000
   0.00000   0.00000   0.00000   0.00000  -0.70897   0.00000   0.00000   0.06272
   0.00000   0.00000   0.06272   0.00000   0.00000  -1.22372   0.00000   0.00000
   0.00000   0.00000   0.00000   0.06192   0.00000   0.00000  -1.22487   0.00000
   0.00000   0.00000   0.00000   0.00000   0.06272   0.00000   0.00000  -1.22372
 
 
 Augmentation waves occupancies Rhoij:
 Atom #  1
   2.00130   0.00132   0.00356   0.00000   0.00000   0.00000   0.00000   0.00000   0.00000   0.00000   0.00000   0.00000 ...
   0.00132   1.49551   0.02069   0.00000   0.00000   0.00000   0.00000   0.00000   0.00000   0.00000   0.00000   0.00000 ...
   0.00356   0.02069   0.00036   0.00000   0.00000   0.00000   0.00000   0.00000   0.00000   0.00000   0.00000   0.00000 ...
   0.00000   0.00000   0.00000   1.99957   0.00000   0.00000  -0.03054   0.00000   0.00000   0.00845   0.00000   0.00000 ...
   0.00000   0.00000   0.00000   0.00000   1.99957   0.00000   0.00000  -0.03054   0.00000   0.00000   0.00845   0.00000 ...
   0.00000   0.00000   0.00000   0.00000   0.00000   1.99957   0.00000   0.00000  -0.03054   0.00000   0.00000   0.00845 ...
   0.00000   0.00000   0.00000  -0.03054   0.00000   0.00000   2.14900   0.00000   0.00000   0.03405   0.00000   0.00000 ...
   0.00000   0.00000   0.00000   0.00000  -0.03054   0.00000   0.00000   2.14900   0.00000   0.00000   0.03405   0.00000 ...
   0.00000   0.00000   0.00000   0.00000   0.00000  -0.03054   0.00000   0.00000   2.14900   0.00000   0.00000   0.03405 ...
   0.00000   0.00000   0.00000   0.00845   0.00000   0.00000   0.03405   0.00000   0.00000   0.00072   0.00000   0.00000 ...
   0.00000   0.00000   0.00000   0.00000   0.00845   0.00000   0.00000   0.03405   0.00000   0.00000   0.00072   0.00000 ...
   0.00000   0.00000   0.00000   0.00000   0.00000   0.00845   0.00000   0.00000   0.03405   0.00000   0.00000   0.00072 ...
   ...  only 12  components have been written...
 Atom #  5
   1.89750   0.01285   0.00000   0.00000   0.00000   0.00000   0.00000   0.00000
   0.01285   0.00022   0.00000   0.00000   0.00000   0.00000   0.00000   0.00000
   0.00000   0.00000   1.30892   0.00000   0.00000   0.12607   0.00000   0.00000
   0.00000   0.00000   0.00000   1.27024   0.00000   0.00000   0.12748   0.00000
   0.00000   0.00000   0.00000   0.00000   1.30892   0.00000   0.00000   0.12607
   0.00000   0.00000   0.12607   0.00000   0.00000   0.01218   0.00000   0.00000
   0.00000   0.00000   0.00000   0.12748   0.00000   0.00000   0.01288   0.00000
   0.00000   0.00000   0.00000   0.00000   0.12607   0.00000   0.00000   0.01218
 
 "PAW+U" part of augmentation waves occupancies Rhoij:
 Atom #  1 - L=2 ONLY
   0.64340   0.00000   0.00000   0.00000   0.00000   0.05046   0.00000   0.00000   0.00000   0.00000
   0.00000   0.64340   0.00000   0.00000   0.00000   0.00000   0.05046   0.00000   0.00000   0.00000
   0.00000   0.00000   0.65015   0.00000   0.00000   0.00000   0.00000   0.14010   0.00000   0.00000
   0.00000   0.00000   0.00000   0.64340   0.00000   0.00000   0.00000   0.00000   0.05046   0.00000
   0.00000   0.00000   0.00000   0.00000   0.65015   0.00000   0.00000   0.00000   0.00000   0.14010
   0.05046   0.00000   0.00000   0.00000   0.00000   0.00970   0.00000   0.00000   0.00000   0.00000
   0.00000   0.05046   0.00000   0.00000   0.00000   0.00000   0.00970   0.00000   0.00000   0.00000
   0.00000   0.00000   0.14010   0.00000   0.00000   0.00000   0.00000   0.03565   0.00000   0.00000
   0.00000   0.00000   0.00000   0.05046   0.00000   0.00000   0.00000   0.00000   0.00970   0.00000
   0.00000   0.00000   0.00000   0.00000   0.14010   0.00000   0.00000   0.00000   0.00000   0.03565
 
 ---------- LDA+U DATA --------------------------------------------------- 
 
 ====== For Atom     1, occupations for correlated orbitals. lpawu =   2
 
 
 == Occupation matrix for correlated orbitals:
 
 Up component only...
     0.23611    0.00000    0.00000    0.00000    0.00000
     0.00000    0.23611    0.00000    0.00000    0.00000
     0.00000    0.00000    0.22711    0.00000    0.00000
     0.00000    0.00000    0.00000    0.23611    0.00000
     0.00000    0.00000    0.00000    0.00000    0.22711
 
 
 
================================================================================
 
 ----iterations are completed or convergence reached----
 
 Mean square residual over all n,k,spin=   27.712E-13; max=  47.470E-11
  -0.1667 -0.3333  0.0000    1  3.54321E-10 kpt; spin; max resid(k); each band:
  1.34E-18 5.14E-18 2.87E-19 3.65E-22 5.83E-17 6.97E-18 3.27E-18 7.06E-18
  2.06E-23 2.30E-19 8.06E-19 5.07E-17 2.78E-17 1.30E-20 1.39E-17 2.38E-22
  1.82E-17 1.46E-16 4.03E-21 1.11E-17 2.39E-21 1.23E-20 2.52E-17 2.46E-18
  3.62E-16 1.55E-15 7.68E-15 9.53E-13 8.15E-17 3.54E-10
  -0.1667 -0.1667  0.1667    1  4.74698E-10 kpt; spin; max resid(k); each band:
  5.12E-19 2.38E-19 8.54E-21 8.54E-21 2.13E-17 8.37E-19 6.99E-22 9.32E-22
  1.01E-22 7.65E-23 3.04E-20 2.33E-18 6.34E-20 6.34E-20 2.03E-20 2.05E-20
  1.73E-18 2.95E-25 4.35E-19 4.34E-19 1.08E-18 1.44E-21 8.33E-21 7.93E-20
  7.93E-20 1.82E-19 1.78E-19 1.78E-13 3.61E-16 4.75E-10
  -0.3333  0.5000  0.0000    1  5.90911E-15 kpt; spin; max resid(k); each band:
  2.28E-20 1.46E-19 1.10E-21 1.91E-23 7.37E-20 3.50E-22 4.33E-19 2.06E-21
  2.70E-25 2.02E-21 4.45E-21 6.17E-21 7.53E-19 1.01E-19 4.16E-24 3.17E-24
  1.36E-22 5.31E-20 3.06E-20 3.39E-18 1.65E-23 2.29E-23 2.37E-19 4.39E-20
  3.10E-16 3.21E-15 2.36E-16 5.91E-15 3.74E-19 1.08E-16
  -0.1667  0.5000  0.1667    1  2.63286E-14 kpt; spin; max resid(k); each band:
  5.35E-20 3.03E-19 1.47E-21 6.22E-22 2.56E-19 8.35E-21 9.11E-19 2.47E-23
  5.54E-24 1.13E-21 1.82E-20 2.06E-19 2.76E-18 1.87E-18 6.28E-23 2.64E-23
  1.74E-17 2.35E-18 4.48E-23 2.35E-22 9.83E-19 3.24E-19 2.12E-22 3.04E-22
  3.42E-17 1.78E-15 4.81E-20 2.63E-14 6.95E-15 5.12E-20
  -0.3333 -0.3333  0.1667    1  4.96783E-14 kpt; spin; max resid(k); each band:
  4.13E-19 2.44E-18 1.01E-20 1.31E-19 1.73E-17 9.91E-18 1.23E-23 2.02E-18
  3.01E-19 8.82E-21 2.45E-19 1.22E-16 2.53E-20 4.99E-17 1.66E-17 3.60E-22
  7.39E-17 4.08E-17 2.67E-20 2.26E-19 1.50E-16 5.61E-21 8.38E-17 7.45E-18
  7.72E-18 1.18E-15 4.97E-14 6.81E-17 1.93E-14 9.43E-16
  -0.1667  0.0000  0.0000    1  9.19326E-17 kpt; spin; max resid(k); each band:
  8.91E-18 6.36E-19 2.03E-22 1.01E-21 1.18E-19 1.37E-19 9.10E-20 1.38E-23
  2.10E-21 1.02E-22 1.36E-19 9.78E-19 2.72E-20 2.46E-18 2.25E-19 6.69E-19
  2.74E-24 7.32E-19 2.00E-17 9.19E-17 4.42E-26 3.54E-18 7.46E-19 2.07E-23
  1.43E-20 1.44E-21 2.53E-23 5.80E-19 1.09E-17 5.31E-19
   0.5000  0.5000  0.1667    1  4.59119E-15 kpt; spin; max resid(k); each band:
  1.70E-21 8.98E-22 8.02E-22 6.12E-23 2.50E-19 2.40E-22 3.34E-23 2.64E-23
  1.06E-20 6.33E-23 1.10E-23 1.16E-21 4.23E-19 3.57E-27 2.23E-22 1.37E-21
  3.15E-21 4.04E-21 2.98E-20 7.22E-24 5.00E-20 5.26E-20 3.17E-19 1.82E-21
  1.44E-22 2.22E-19 4.59E-15 1.98E-15 2.06E-15 4.03E-20
  -0.3333  0.5000  0.3333    1  6.35582E-13 kpt; spin; max resid(k); each band:
  1.56E-20 5.62E-20 3.56E-21 5.64E-22 5.27E-20 2.75E-20 2.59E-20 4.36E-23
  4.01E-24 3.81E-20 3.33E-21 4.94E-22 3.19E-19 1.69E-18 5.72E-23 1.12E-22
  4.56E-20 1.35E-22 3.48E-19 7.04E-23 4.41E-20 1.79E-18 2.57E-23 5.85E-21
  4.33E-17 1.24E-15 2.90E-17 3.19E-21 9.25E-19 6.36E-13
   0.5000  0.0000  0.0000    1  3.70683E-13 kpt; spin; max resid(k); each band:
  6.82E-21 5.49E-19 2.18E-22 3.72E-22 3.49E-18 3.13E-23 6.44E-26 1.25E-19
  7.51E-25 1.08E-23 1.66E-22 4.32E-21 1.34E-23 7.98E-23 1.63E-20 1.76E-23
  3.43E-23 2.47E-23 1.65E-23 1.94E-23 3.56E-27 1.78E-24 1.27E-24 1.04E-22
  5.21E-19 9.89E-22 1.08E-16 4.78E-26 3.71E-13 7.61E-14
   0.5000  0.5000  0.5000    1  5.21792E-17 kpt; spin; max resid(k); each band:
  2.47E-24 3.76E-23 3.26E-23 3.19E-23 2.24E-25 1.80E-23 1.51E-23 3.17E-23
  4.53E-25 2.93E-25 3.00E-24 1.21E-26 3.07E-29 3.09E-29 5.91E-24 6.55E-25
  2.55E-24 4.12E-29 1.65E-28 1.94E-28 8.79E-23 1.91E-22 2.04E-22 4.63E-23
  5.47E-24 5.17E-23 4.14E-27 3.08E-26 5.22E-17 5.08E-17
 reduced coordinates (array xred) for    5 atoms
       0.000000000000      0.000000000000      0.000000000000
       0.500000000000      0.500000000000      0.500000000000
       0.500000000000      0.000000000000      0.000000000000
       0.000000000000      0.500000000000      0.000000000000
       0.000000000000      0.000000000000      0.500000000000
 rms dE/dt=  0.0000E+00; max dE/dt=  0.0000E+00; dE/dt below (all hartree)
    1       0.000000000000      0.000000000000      0.000000000000
    2       0.000000000000      0.000000000000      0.000000000000
    3       0.000000000000      0.000000000000      0.000000000000
    4       0.000000000000      0.000000000000      0.000000000000
    5       0.000000000000      0.000000000000      0.000000000000
 
 cartesian coordinates (angstrom) at end:
    1      0.00000000000000     0.00000000000000     0.00000000000000
    2      1.92104556148385     1.92104556148385     1.92104556148385
    3      1.92104556148385     0.00000000000000     0.00000000000000
    4      0.00000000000000     1.92104556148385     0.00000000000000
    5      0.00000000000000     0.00000000000000     1.92104556148385
 
 cartesian forces (hartree/bohr) at end:
    1      0.00000000000000     0.00000000000000     0.00000000000000
    2      0.00000000000000     0.00000000000000     0.00000000000000
    3      0.00000000000000     0.00000000000000     0.00000000000000
    4      0.00000000000000     0.00000000000000     0.00000000000000
    5      0.00000000000000     0.00000000000000     0.00000000000000
 frms,max,avg= 0.0000000E+00 0.0000000E+00   0.000E+00  0.000E+00  0.000E+00 h/b
 
 cartesian forces (eV/Angstrom) at end:
    1      0.00000000000000     0.00000000000000     0.00000000000000
    2      0.00000000000000     0.00000000000000     0.00000000000000
    3      0.00000000000000     0.00000000000000     0.00000000000000
    4      0.00000000000000     0.00000000000000     0.00000000000000
    5      0.00000000000000     0.00000000000000     0.00000000000000
 frms,max,avg= 0.0000000E+00 0.0000000E+00   0.000E+00  0.000E+00  0.000E+00 e/A
 length scales=  7.260500000000  7.260500000000  7.260500000000 bohr
              =  3.842091122968  3.842091122968  3.842091122968 angstroms
 prteigrs : about to open file tdmft_2o_DS1_EIG
 Fermi (or HOMO) energy (hartree) =   0.29650   Average Vxc (hartree)=  -0.44725
 Eigenvalues (hartree) for nkpt=  10  k points:
 kpt#   1, nband= 30, wtk=  0.22222, kpt= -0.1667 -0.3333  0.0000 (reduced coord)
  -2.09710   -1.14897   -1.14822   -1.14786   -0.95798   -0.44821   -0.41054   -0.40792
  -0.29706   -0.29607   -0.28708    0.05853    0.08754    0.10081    0.10250    0.13076
   0.15071    0.17631    0.18224    0.18734    0.28851    0.32151    0.32220    0.36314
   0.43203    0.49346    0.50134    0.54031    0.54842    0.57874
      occupation numbers for kpt#   1
   2.00000    2.00000    2.00000    2.00000    2.00000    2.00000    2.00000    2.00000
   2.00000    2.00000    2.00000    2.00000    2.00000    2.00000    2.00000    2.00000
   2.00000    2.00000    2.00000    2.00000    1.78212    0.00276    0.00230    0.00000
   0.00000    0.00000    0.00000    0.00000    0.00000    0.00000
 kpt#   2, nband= 30, wtk=  0.07407, kpt= -0.1667 -0.1667  0.1667 (reduced coord)
  -2.09710   -1.14826   -1.14823   -1.14823   -0.95829   -0.44650   -0.41079   -0.41079
  -0.29830   -0.29830   -0.28954    0.07181    0.09542    0.09542    0.13051    0.13051
   0.15084    0.19072    0.19305    0.19305    0.29551    0.29933    0.29933    0.39344
   0.39344    0.47283    0.47283    0.50357    0.56275    0.56275
      occupation numbers for kpt#   2
   2.00000    2.00000    2.00000    2.00000    2.00000    2.00000    2.00000    2.00000
   2.00000    2.00000    2.00000    2.00000    2.00000    2.00000    2.00000    2.00000
   2.00000    2.00000    2.00000    2.00000    1.12887    0.64309    0.64309    0.00000
   0.00000    0.00000    0.00000    0.00000    0.00000    0.00000
 kpt#   3, nband= 30, wtk=  0.11111, kpt= -0.3333  0.5000  0.0000 (reduced coord)
  -2.09708   -1.14927   -1.14889   -1.14781   -0.95723   -0.43584   -0.41207   -0.40996
  -0.29494   -0.29266   -0.28925    0.04011    0.04913    0.06558    0.10392    0.11141
   0.15303    0.15535    0.16341    0.21359    0.32120    0.33522    0.34111    0.37797
   0.48845    0.53197    0.53700    0.57404    0.57856    0.59506
      occupation numbers for kpt#   3
   2.00000    2.00000    2.00000    2.00000    2.00000    2.00000    2.00000    2.00000
   2.00000    2.00000    2.00000    2.00000    2.00000    2.00000    2.00000    2.00000
   2.00000    2.00000    2.00000    2.00000    0.00300    0.00008    0.00002    0.00000
   0.00000    0.00000    0.00000    0.00000    0.00000    0.00000
 kpt#   4, nband= 30, wtk=  0.11111, kpt= -0.1667  0.5000  0.1667 (reduced coord)
  -2.09708   -1.14930   -1.14820   -1.14818   -0.95745   -0.44370   -0.40783   -0.40764
  -0.30099   -0.29193   -0.28767    0.04406    0.07591    0.08788    0.09779    0.09904
   0.14296    0.17449    0.18145    0.18320    0.30100    0.33585    0.33783    0.39113
   0.45506    0.52330    0.52411    0.56050    0.56802    0.56847
      occupation numbers for kpt#   4
   2.00000    2.00000    2.00000    2.00000    2.00000    2.00000    2.00000    2.00000
   2.00000    2.00000    2.00000    2.00000    2.00000    2.00000    2.00000    2.00000
   2.00000    2.00000    2.00000    2.00000    0.46782    0.00006    0.00004    0.00000
   0.00000    0.00000    0.00000    0.00000    0.00000    0.00000
 kpt#   5, nband= 30, wtk=  0.22222, kpt= -0.3333 -0.3333  0.1667 (reduced coord)
  -2.09708   -1.14890   -1.14888   -1.14817   -0.95725   -0.43477   -0.41170   -0.40707
  -0.30075   -0.29688   -0.28852    0.04828    0.07055    0.07123    0.09275    0.10430
   0.12075    0.17986    0.18556    0.21030    0.32410    0.32691    0.33452    0.41209
   0.47102    0.51868    0.53097    0.53554    0.56559    0.58342
      occupation numbers for kpt#   5
   2.00000    2.00000    2.00000    2.00000    2.00000    2.00000    2.00000    2.00000
   2.00000    2.00000    2.00000    2.00000    2.00000    2.00000    2.00000    2.00000
   2.00000    2.00000    2.00000    2.00000    0.00140    0.00067    0.00009    0.00000
   0.00000    0.00000    0.00000    0.00000    0.00000    0.00000
 kpt#   6, nband= 30, wtk=  0.05556, kpt= -0.1667  0.0000  0.0000 (reduced coord)
  -2.09712   -1.14829   -1.14791   -1.14791   -0.95887   -0.45077   -0.41089   -0.41027
  -0.29902   -0.29902   -0.29475    0.08667    0.10242    0.10242    0.16108    0.16108
   0.16642    0.18251    0.20592    0.20592    0.26386    0.28720    0.28720    0.34379
   0.37444    0.44175    0.44400    0.48047    0.53887    0.55339
      occupation numbers for kpt#   6
   2.00000    2.00000    2.00000    2.00000    2.00000    2.00000    2.00000    2.00000
   2.00000    2.00000    2.00000    2.00000    2.00000    2.00000    2.00000    2.00000
   2.00000    2.00000    2.00000    2.00000    1.99963    1.84059    1.84059    0.00001
   0.00000    0.00000    0.00000    0.00000    0.00000    0.00000
 kpt#   7, nband= 30, wtk=  0.05556, kpt=  0.5000  0.5000  0.1667 (reduced coord)
  -2.09707   -1.14921   -1.14921   -1.14814   -0.95678   -0.41983   -0.41204   -0.41204
  -0.29900   -0.29614   -0.29614    0.03436    0.04808    0.05635    0.09503    0.09503
   0.11261    0.18371    0.18371    0.22694    0.33911    0.33911    0.34946    0.41638
   0.51046    0.51778    0.55254    0.55816    0.55816    0.61564
      occupation numbers for kpt#   7
   2.00000    2.00000    2.00000    2.00000    2.00000    2.00000    2.00000    2.00000
   2.00000    2.00000    2.00000    2.00000    2.00000    2.00000    2.00000    2.00000
   2.00000    2.00000    2.00000    2.00000    0.00003    0.00003    0.00000    0.00000
   0.00000    0.00000    0.00000    0.00000    0.00000    0.00000
 kpt#   8, nband= 30, wtk=  0.11111, kpt= -0.3333  0.5000  0.3333 (reduced coord)
  -2.09706   -1.14919   -1.14883   -1.14882   -0.95655   -0.41848   -0.40750   -0.40429
  -0.30849   -0.30222   -0.29940    0.03980    0.06478    0.06768    0.07241    0.08366
   0.08974    0.20554    0.20998    0.21887    0.34106    0.34715    0.34905    0.46686
   0.49025    0.51718    0.51759    0.52111    0.57013    0.59640
      occupation numbers for kpt#   8
   2.00000    2.00000    2.00000    2.00000    2.00000    2.00000    2.00000    2.00000
   2.00000    2.00000    2.00000    2.00000    2.00000    2.00000    2.00000    2.00000
   2.00000    2.00000    2.00000    2.00000    0.00002    0.00000    0.00000    0.00000
   0.00000    0.00000    0.00000    0.00000    0.00000    0.00000
 kpt#   9, nband= 30, wtk=  0.02778, kpt=  0.5000  0.0000  0.0000 (reduced coord)
  -2.09710   -1.14935   -1.14785   -1.14785   -0.95790   -0.45430   -0.40927   -0.40368
  -0.29713   -0.29713   -0.28171    0.04718    0.09795    0.09795    0.12749    0.12815
   0.12815    0.14366    0.19963    0.19963    0.26731    0.33657    0.33657    0.34401
   0.43057    0.50546    0.50785    0.53228    0.59105    0.59105
      occupation numbers for kpt#   9
   2.00000    2.00000    2.00000    2.00000    2.00000    2.00000    2.00000    2.00000
   2.00000    2.00000    2.00000    2.00000    2.00000    2.00000    2.00000    2.00000
   2.00000    2.00000    2.00000    2.00000    1.99908    0.00005    0.00005    0.00001
   0.00000    0.00000    0.00000    0.00000    0.00000    0.00000
 kpt#  10, nband= 30, wtk=  0.00926, kpt=  0.5000  0.5000  0.5000 (reduced coord)
  -2.09705   -1.14914   -1.14914   -1.14914   -0.95610   -0.40242   -0.40242   -0.40242
  -0.31214   -0.31214   -0.31214    0.02867    0.05797    0.05797    0.08002    0.08002
   0.08002    0.23188    0.23188    0.23188    0.35804    0.35804    0.35804    0.48580
   0.48580    0.48580    0.51215    0.51215    0.59952    0.59952
      occupation numbers for kpt#  10
   2.00000    2.00000    2.00000    2.00000    2.00000    2.00000    2.00000    2.00000
   2.00000    2.00000    2.00000    2.00000    2.00000    2.00000    2.00000    2.00000
   2.00000    2.00000    2.00000    2.00000    0.00000    0.00000    0.00000    0.00000
   0.00000    0.00000    0.00000    0.00000    0.00000    0.00000
 Total charge density [el/Bohr^3]
      Maximum=    1.5039E+00  at reduced coord.    0.0000    0.0000    0.0000
 Next maximum=    1.4488E+00  at reduced coord.    0.0000    0.0000    0.9667
      Minimum=    6.1989E-03  at reduced coord.    0.5000    0.5000    0.0000
 Next minimum=    6.1989E-03  at reduced coord.    0.5000    0.0000    0.5000
   Integrated=    4.1000E+01
 
--------------------------------------------------------------------------------
 Components of total free energy (in Hartree) :
 
    Kinetic energy  =  4.32275657754053E+01
    Hartree energy  =  3.13321276953010E+01
    XC energy       = -2.24598169356535E+01
    Ewald energy    = -1.14220316979058E+02
    PspCore energy  =  6.53692522600451E+00
    Loc. psp. energy= -9.85255481864181E+01
    Spherical terms =  2.59451610409300E+00
    >>>>> Internal E= -1.51514547300325E+02
 
    -kT*entropy     = -2.42936365680586E-03
    >>>>>>>>> Etotal= -1.51516976663982E+02
 
 "Double-counting" decomposition of free energy:
    Band energy     = -1.47474512286650E+01
    Ewald energy    = -1.14220316979058E+02
    PspCore energy  =  6.53692522600451E+00
    Dble-C XC-energy= -2.44045847726769E+01
    Spherical terms = -4.67916064649477E+00
    >>>>> Internal E= -1.51514588400890E+02
 
    -kT*entropy     = -2.42936365680586E-03
    >>>> Etotal (DC)= -1.51517017764546E+02
 
  >Total energy in eV           = -4.12298661331028E+03
  >Total DC energy in eV        = -4.12298773171351E+03
--------------------------------------------------------------------------------
 
 Cartesian components of stress tensor (hartree/bohr^3)
  sigma(1 1)=  3.53331024E-03  sigma(3 2)=  0.00000000E+00
  sigma(2 2)=  3.53331024E-03  sigma(3 1)=  0.00000000E+00
  sigma(3 3)=  3.53331024E-03  sigma(2 1)=  0.00000000E+00
 
-Cartesian components of stress tensor (GPa)         [Pressure= -1.0395E+02 GPa]
- sigma(1 1)=  1.03953559E+02  sigma(3 2)=  0.00000000E+00
- sigma(2 2)=  1.03953559E+02  sigma(3 1)=  0.00000000E+00
- sigma(3 3)=  1.03953559E+02  sigma(2 1)=  0.00000000E+00
 
================================================================================
== DATASET  2 ==================================================================
-   nproc =    1
 
 mkfilename : getwfk/=0, take file _WFK from output of DATASET   1.
 
 Exchange-correlation functional for the present dataset will be:
  LDA: Perdew-Wang 92 LSD fit to Ceperley-Alder data - ixc=7
 Citation for XC functional:
  J.P.Perdew and Y.Wang, PRB 45, 13244 (1992)
 
 Real(R)+Recip(G) space primitive vectors, cartesian coordinates (Bohr,Bohr^-1):
 R(1)=  7.2605000  0.0000000  0.0000000  G(1)=  0.1377316  0.0000000  0.0000000
 R(2)=  0.0000000  7.2605000  0.0000000  G(2)=  0.0000000  0.1377316  0.0000000
 R(3)=  0.0000000  0.0000000  7.2605000  G(3)=  0.0000000  0.0000000  0.1377316
 Unit cell volume ucvol=  3.8273624E+02 bohr^3
 Angles (23,13,12)=  9.00000000E+01  9.00000000E+01  9.00000000E+01 degrees
 
 Coarse grid specifications (used for wave-functions):
 
 getcut: wavevector=  0.0000  0.0000  0.0000  ngfft=  24  24  24
         ecut(hartree)=     12.000   => boxcut(ratio)=   2.11977
 
 Fine grid specifications (used for densities):
 
 getcut: wavevector=  0.0000  0.0000  0.0000  ngfft=  30  30  30
         ecut(hartree)=     20.000   => boxcut(ratio)=   2.05246
--------------------------------------------------------------------------------
 
-inwffil : will read wavefunctions from disk file tdmft_2o_DS1_WFK
P newkpt: treating     30 bands with npw=     758 for ikpt=   1 by node    0
P newkpt: treating     30 bands with npw=     748 for ikpt=   2 by node    0
P newkpt: treating     30 bands with npw=     770 for ikpt=   3 by node    0
P newkpt: treating     30 bands with npw=     768 for ikpt=   4 by node    0
P newkpt: treating     30 bands with npw=     756 for ikpt=   5 by node    0
P newkpt: treating     30 bands with npw=     759 for ikpt=   6 by node    0
P newkpt: treating     30 bands with npw=     760 for ikpt=   7 by node    0
P newkpt: treating     30 bands with npw=     748 for ikpt=   8 by node    0
P newkpt: treating     30 bands with npw=     756 for ikpt=   9 by node    0
P newkpt: treating     30 bands with npw=     720 for ikpt=  10 by node    0
_setup2: Arith. and geom. avg. npw (full set) are     757.907     757.867
 
-       ( number of procs used in dmft ) =  1
 
 
 ******************************************
 DFT+DMFT Method is used
 ******************************************
 
 DMFT uses the Continuous Time Quantum Monte Carlo solver of ABINIT
 
================================================================================
 
     iter   Etot(hartree)      deltaE(h)  residm     nres2
 (Edmft  1   0.00922249891)
 
  == The DFT+DMFT occupation matrix for correlated electrons is ==
 
   -------> For Correlated Atom   1
 
          -- polarization spin component  1
        0.16882   0.00000   0.00000
        0.00000   0.16882   0.00000
        0.00000   0.00000   0.16882
 
 ETOT  1  -151.49745764057    -1.515E+02 1.045E-16 5.527E-04
 (Edmft  2   0.00766950124)
 
  == The DFT+DMFT occupation matrix for correlated electrons is ==
 
   -------> For Correlated Atom   1
 
          -- polarization spin component  1
        0.16860   0.00000  -0.00000
       -0.00000   0.16860  -0.00000
       -0.00000   0.00000   0.16860
 
 ETOT  2  -151.49616613256     1.292E-03 8.368E-22 1.223E-04
 (Edmft  3   0.00694368492)
 
  == The DFT+DMFT occupation matrix for correlated electrons is ==
 
   -------> For Correlated Atom   1
 
          -- polarization spin component  1
        0.16852   0.00000   0.00000
        0.00000   0.16852   0.00000
        0.00000   0.00000   0.16852
 
 ETOT  3  -151.49559379692     5.723E-04 1.817E-19 2.360E-04
 (Edmft  4   0.00664030854)
 
  == The DFT+DMFT occupation matrix for correlated electrons is ==
 
   -------> For Correlated Atom   1
 
          -- polarization spin component  1
        0.16847   0.00000   0.00000
        0.00000   0.16847   0.00000
        0.00000   0.00000   0.16847
 
 ETOT  4  -151.49534841949     2.454E-04 1.701E-20 3.067E-05
 (Edmft  5   0.00647565045)
 
  == The DFT+DMFT occupation matrix for correlated electrons is ==
 
   -------> For Correlated Atom   1
 
          -- polarization spin component  1
        0.16845  -0.00000   0.00000
        0.00000   0.16845   0.00000
        0.00000  -0.00000   0.16845
 
 ETOT  5  -151.49525248325     9.594E-05 1.394E-20 9.592E-06
 (Edmft  6   0.00641492915)
 
  == The DFT+DMFT occupation matrix for correlated electrons is ==
 
   -------> For Correlated Atom   1
 
          -- polarization spin component  1
        0.16844   0.00000  -0.00000
       -0.00000   0.16844  -0.00000
        0.00000   0.00000   0.16844
 
 ETOT  6  -151.49515516807     9.732E-05 9.477E-21 2.335E-05
 (Edmft  7   0.00640255663)
 
  == The DFT+DMFT occupation matrix for correlated electrons is ==
 
   -------> For Correlated Atom   1
 
          -- polarization spin component  1
        0.16844  -0.00000  -0.00000
       -0.00000   0.16844  -0.00000
       -0.00000  -0.00000   0.16844
 
 ETOT  7  -151.49518501000    -2.984E-05 1.674E-20 3.825E-05
 (Edmft  8   0.00641475025)
 
  == The DFT+DMFT occupation matrix for correlated electrons is ==
 
   -------> For Correlated Atom   1
 
          -- polarization spin component  1
        0.16843   0.00000   0.00000
        0.00000   0.16843   0.00000
        0.00000   0.00000   0.16843
 
 ETOT  8  -151.49511958475     6.543E-05 2.370E-21 7.085E-07
 (Edmft  9   0.00639902485)
 
  == The DFT+DMFT occupation matrix for correlated electrons is ==
 
   -------> For Correlated Atom   1
 
          -- polarization spin component  1
        0.16843   0.00000   0.00000
        0.00000   0.16843   0.00000
        0.00000   0.00000   0.16843
 
 ETOT  9  -151.49513394803    -1.436E-05 2.746E-20 5.786E-08
 
 At SCF step    9       nres2   =  5.79E-08 < tolvrs=  1.00E-07 =>converged.
 
 Cartesian components of stress tensor (hartree/bohr^3)
  sigma(1 1)=  3.48019402E-03  sigma(3 2)=  0.00000000E+00
  sigma(2 2)=  3.48019402E-03  sigma(3 1)=  0.00000000E+00
  sigma(3 3)=  3.48019402E-03  sigma(2 1)=  0.00000000E+00
 
 Integrated electronic density in atomic spheres:
 ------------------------------------------------
 Atom  Sphere_radius  Integrated_density
    1        2.35000         11.95071753
    2        1.92520          6.48767447
    3        1.41000          4.46762358
    4        1.41000          4.46762358
    5        1.41000          4.46762358
 
 PAW TEST:
 ==== Compensation charge inside spheres ============
 The following values must be close to each other ...
 Compensation charge over spherical meshes =      5.660811842874543
 Compensation charge over fine fft grid    =      5.660937169329181
 
 ==== Results concerning PAW augmentation regions ====
 
 Total pseudopotential strength Dij (hartree):
 Atom #  1
  -1.47630   0.31404  -1.68741   0.00000   0.00000   0.00000   0.00000   0.00000   0.00000   0.00000   0.00000   0.00000 ...
   0.31404   0.16822  -1.52061   0.00000   0.00000   0.00000   0.00000   0.00000   0.00000   0.00000   0.00000   0.00000 ...
  -1.68741  -1.52061  15.94734   0.00000   0.00000   0.00000   0.00000   0.00000   0.00000   0.00000   0.00000   0.00000 ...
   0.00000   0.00000   0.00000  -1.07433   0.00000   0.00000   0.07634   0.00000   0.00000   0.07283   0.00000   0.00000 ...
   0.00000   0.00000   0.00000   0.00000  -1.07433   0.00000   0.00000   0.07634   0.00000   0.00000   0.07283   0.00000 ...
   0.00000   0.00000   0.00000   0.00000   0.00000  -1.07433   0.00000   0.00000   0.07634   0.00000   0.00000   0.07283 ...
   0.00000   0.00000   0.00000   0.07634   0.00000   0.00000   0.03925   0.00000   0.00000  -0.16611   0.00000   0.00000 ...
   0.00000   0.00000   0.00000   0.00000   0.07634   0.00000   0.00000   0.03925   0.00000   0.00000  -0.16611   0.00000 ...
   0.00000   0.00000   0.00000   0.00000   0.00000   0.07634   0.00000   0.00000   0.03925   0.00000   0.00000  -0.16611 ...
   0.00000   0.00000   0.00000   0.07283   0.00000   0.00000  -0.16611   0.00000   0.00000   2.29486   0.00000   0.00000 ...
   0.00000   0.00000   0.00000   0.00000   0.07283   0.00000   0.00000  -0.16611   0.00000   0.00000   2.29486   0.00000 ...
   0.00000   0.00000   0.00000   0.00000   0.00000   0.07283   0.00000   0.00000  -0.16611   0.00000   0.00000   2.29486 ...
   ...  only 12  components have been written...
 Atom #  5
   0.04174   0.09127   0.00000   0.00000   0.00000   0.00000   0.00000   0.00000
   0.09127   0.00939   0.00000   0.00000   0.00000   0.00000   0.00000   0.00000
   0.00000   0.00000  -0.70882   0.00000   0.00000   0.06272   0.00000   0.00000
   0.00000   0.00000   0.00000  -0.71006   0.00000   0.00000   0.06190   0.00000
   0.00000   0.00000   0.00000   0.00000  -0.70882   0.00000   0.00000   0.06272
   0.00000   0.00000   0.06272   0.00000   0.00000  -1.22365   0.00000   0.00000
   0.00000   0.00000   0.00000   0.06190   0.00000   0.00000  -1.22484   0.00000
   0.00000   0.00000   0.00000   0.00000   0.06272   0.00000   0.00000  -1.22365
 
 
 Augmentation waves occupancies Rhoij:
 Atom #  1
   2.00127   0.00130   0.00342   0.00000   0.00000   0.00000   0.00000   0.00000   0.00000   0.00000   0.00000   0.00000 ...
   0.00130   1.49708   0.02072   0.00000   0.00000   0.00000   0.00000   0.00000   0.00000   0.00000   0.00000   0.00000 ...
   0.00342   0.02072   0.00036   0.00000   0.00000   0.00000   0.00000   0.00000   0.00000   0.00000   0.00000   0.00000 ...
   0.00000   0.00000   0.00000   1.99968   0.00000   0.00000  -0.02898   0.00000   0.00000   0.00815   0.00000   0.00000 ...
   0.00000   0.00000   0.00000   0.00000   1.99968   0.00000   0.00000  -0.02898   0.00000   0.00000   0.00815   0.00000 ...
   0.00000   0.00000   0.00000   0.00000   0.00000   1.99968   0.00000   0.00000  -0.02898   0.00000   0.00000   0.00815 ...
   0.00000   0.00000   0.00000  -0.02898   0.00000   0.00000   2.15146   0.00000   0.00000   0.03414   0.00000   0.00000 ...
   0.00000   0.00000   0.00000   0.00000  -0.02898   0.00000   0.00000   2.15146   0.00000   0.00000   0.03414   0.00000 ...
   0.00000   0.00000   0.00000   0.00000   0.00000  -0.02898   0.00000   0.00000   2.15146   0.00000   0.00000   0.03414 ...
   0.00000   0.00000   0.00000   0.00815   0.00000   0.00000   0.03414   0.00000   0.00000   0.00072   0.00000   0.00000 ...
   0.00000   0.00000   0.00000   0.00000   0.00815   0.00000   0.00000   0.03414   0.00000   0.00000   0.00072   0.00000 ...
   0.00000   0.00000   0.00000   0.00000   0.00000   0.00815   0.00000   0.00000   0.03414   0.00000   0.00000   0.00072 ...
   ...  only 12  components have been written...
 Atom #  5
   1.89687   0.01292   0.00000   0.00000   0.00000   0.00000   0.00000   0.00000
   0.01292   0.00022   0.00000   0.00000   0.00000   0.00000   0.00000   0.00000
   0.00000   0.00000   1.31146   0.00000   0.00000   0.12626   0.00000   0.00000
   0.00000   0.00000   0.00000   1.26833   0.00000   0.00000   0.12738   0.00000
   0.00000   0.00000   0.00000   0.00000   1.31146   0.00000   0.00000   0.12626
   0.00000   0.00000   0.12626   0.00000   0.00000   0.01219   0.00000   0.00000
   0.00000   0.00000   0.00000   0.12738   0.00000   0.00000   0.01288   0.00000
   0.00000   0.00000   0.00000   0.00000   0.12626   0.00000   0.00000   0.01219
 
 "PAW+U" part of augmentation waves occupancies Rhoij:
 Atom #  1 - L=2 ONLY
   0.64066   0.00000   0.00000   0.00000   0.00000   0.04651   0.00000   0.00000   0.00000   0.00000
   0.00000   0.64066   0.00000   0.00000   0.00000   0.00000   0.04651   0.00000   0.00000   0.00000
   0.00000   0.00000   0.64997   0.00000   0.00000   0.00000   0.00000   0.14047   0.00000   0.00000
   0.00000   0.00000   0.00000   0.64066   0.00000   0.00000   0.00000   0.00000   0.04651   0.00000
   0.00000   0.00000   0.00000   0.00000   0.64997   0.00000   0.00000   0.00000   0.00000   0.14047
   0.04651   0.00000   0.00000   0.00000   0.00000   0.01018   0.00000   0.00000   0.00000   0.00000
   0.00000   0.04651   0.00000   0.00000   0.00000   0.00000   0.01018   0.00000   0.00000   0.00000
   0.00000   0.00000   0.14047   0.00000   0.00000   0.00000   0.00000   0.03582   0.00000   0.00000
   0.00000   0.00000   0.00000   0.04651   0.00000   0.00000   0.00000   0.00000   0.01018   0.00000
   0.00000   0.00000   0.00000   0.00000   0.14047   0.00000   0.00000   0.00000   0.00000   0.03582
 
 ---------- LDA+U DATA --------------------------------------------------- 
 
 ====== For Atom     1, occupations for correlated orbitals. lpawu =   2
 
  (This is PAW atomic orbital occupations)
  (For Wannier orbital occupations, refer to DFT+DMFT occupations above)
 
 == Occupation matrix for correlated orbitals:
 
 Up component only...
     0.23560    0.00000    0.00000    0.00000    0.00000
     0.00000    0.23560    0.00000    0.00000    0.00000
     0.00000    0.00000    0.22699    0.00000    0.00000
     0.00000    0.00000    0.00000    0.23560    0.00000
     0.00000    0.00000    0.00000    0.00000    0.22699
 
 
 
================================================================================
 
 ----iterations are completed or convergence reached----
 
 Mean square residual over all n,k,spin=   91.527E-24; max=  27.458E-21
  -0.1667 -0.3333  0.0000    1  6.82036E-28 kpt; spin; max resid(k); each band:
  2.26E-29 4.78E-30 1.06E-29 9.03E-30 1.97E-29 2.72E-30 2.79E-30 3.56E-30
  6.31E-30 2.37E-30 2.21E-30 2.72E-30 1.62E-29 2.44E-30 1.87E-30 3.08E-30
  1.19E-30 1.45E-30 1.02E-30 7.01E-31 3.47E-30 1.66E-30 1.13E-30 1.81E-30
  3.00E-30 6.06E-30 1.44E-30 6.82E-28 1.89E-30 2.10E-29
  -0.1667 -0.1667  0.1667    1  1.62037E-29 kpt; spin; max resid(k); each band:
  1.62E-29 6.01E-30 9.47E-30 1.03E-29 1.10E-29 2.86E-30 1.60E-30 1.90E-30
  4.10E-30 6.31E-30 2.57E-30 1.77E-30 8.45E-31 1.23E-30 1.71E-30 4.31E-30
  5.72E-30 4.88E-30 1.65E-30 1.48E-30 4.82E-30 8.33E-30 1.70E-30 1.99E-30
  1.78E-30 3.04E-30 1.37E-30 3.46E-30 2.41E-30 4.48E-30
  -0.3333  0.5000  0.0000    1  4.29600E-29 kpt; spin; max resid(k); each band:
  2.22E-29 1.01E-29 7.67E-30 3.25E-29 4.30E-29 1.01E-29 1.50E-29 1.76E-30
  6.32E-30 1.33E-29 3.20E-30 7.08E-31 4.61E-30 4.34E-30 4.40E-30 2.02E-30
  7.13E-30 6.34E-30 8.59E-30 6.66E-30 1.30E-30 8.36E-30 2.89E-30 5.14E-30
  1.41E-29 2.88E-30 1.58E-30 4.40E-30 1.18E-29 1.75E-30
  -0.1667  0.5000  0.1667    1  2.17880E-29 kpt; spin; max resid(k); each band:
  2.18E-29 8.70E-30 8.83E-30 8.15E-30 1.18E-29 4.41E-30 3.90E-30 5.77E-30
  5.38E-30 7.24E-30 2.51E-30 8.53E-30 2.11E-30 1.33E-30 1.05E-30 6.66E-30
  9.63E-31 9.94E-31 1.07E-30 1.36E-30 3.29E-30 1.21E-30 4.45E-30 1.38E-30
  1.32E-30 1.98E-30 3.31E-30 4.12E-30 1.75E-29 8.07E-30
  -0.3333 -0.3333  0.1667    1  4.28548E-29 kpt; spin; max resid(k); each band:
  4.29E-29 1.03E-29 6.90E-30 9.80E-30 9.91E-30 4.12E-30 1.87E-30 2.10E-30
  3.81E-30 1.51E-29 2.08E-29 2.33E-30 1.07E-30 1.05E-30 4.04E-30 5.71E-30
  3.62E-30 1.20E-30 5.29E-30 2.07E-30 4.11E-30 4.96E-30 1.06E-30 2.10E-30
  2.63E-30 4.64E-30 3.65E-30 4.10E-30 2.87E-29 1.31E-30
  -0.1667  0.0000  0.0000    1  2.74581E-20 kpt; spin; max resid(k); each band:
  5.15E-29 5.38E-30 1.07E-29 8.35E-30 1.03E-29 4.30E-30 4.18E-30 6.86E-30
  4.37E-30 3.69E-30 6.74E-30 6.89E-30 5.48E-30 3.95E-30 5.43E-30 8.10E-31
  1.09E-29 3.46E-30 4.25E-30 1.80E-30 3.70E-30 1.33E-30 1.50E-30 1.51E-30
  2.33E-30 2.72E-30 3.82E-30 2.79E-30 4.99E-30 2.75E-20
   0.5000  0.5000  0.1667    1  2.68524E-29 kpt; spin; max resid(k); each band:
  1.23E-29 8.04E-30 6.99E-30 7.67E-30 1.01E-29 6.16E-30 1.80E-30 3.56E-30
  1.37E-30 1.69E-30 2.14E-30 6.44E-30 2.69E-29 6.45E-30 9.76E-30 4.20E-30
  1.31E-30 3.51E-30 1.56E-30 2.55E-30 3.20E-30 9.80E-30 4.10E-31 5.60E-30
  1.57E-30 2.95E-30 2.58E-30 8.26E-31 2.59E-30 2.94E-30
  -0.3333  0.5000  0.3333    1  6.03813E-26 kpt; spin; max resid(k); each band:
  2.32E-29 6.95E-30 7.28E-30 7.29E-30 9.63E-30 7.84E-30 1.56E-29 2.19E-30
  2.37E-29 1.38E-29 4.75E-30 6.88E-31 1.92E-30 1.48E-30 3.55E-30 1.23E-29
  1.81E-29 1.52E-30 4.03E-30 2.16E-30 1.29E-30 1.05E-29 5.60E-30 6.92E-30
  2.31E-30 2.41E-30 2.15E-30 4.96E-30 2.40E-30 6.04E-26
   0.5000  0.0000  0.0000    1  2.03874E-29 kpt; spin; max resid(k); each band:
  1.80E-29 6.90E-30 9.35E-30 1.40E-29 1.04E-29 1.68E-30 4.46E-30 8.90E-30
  1.57E-30 1.25E-30 1.15E-30 2.00E-30 3.57E-30 4.73E-30 1.21E-29 9.34E-30
  1.33E-29 5.08E-30 1.09E-30 2.56E-30 2.84E-30 7.90E-30 2.72E-30 1.26E-30
  1.19E-29 2.04E-29 1.95E-30 1.18E-29 5.03E-30 6.14E-30
   0.5000  0.5000  0.5000    1  4.29064E-29 kpt; spin; max resid(k); each band:
  1.68E-29 3.81E-29 4.00E-29 2.28E-29 6.79E-30 2.89E-30 6.19E-30 1.95E-29
  3.14E-30 2.19E-30 2.59E-30 8.63E-30 8.20E-31 8.16E-30 5.10E-30 1.70E-29
  1.00E-30 1.82E-30 9.05E-30 1.40E-30 7.28E-30 2.07E-30 8.72E-30 3.16E-30
  1.35E-30 2.15E-30 3.17E-30 4.29E-29 1.96E-30 1.14E-30
 reduced coordinates (array xred) for    5 atoms
       0.000000000000      0.000000000000      0.000000000000
       0.500000000000      0.500000000000      0.500000000000
       0.500000000000      0.000000000000      0.000000000000
       0.000000000000      0.500000000000      0.000000000000
       0.000000000000      0.000000000000      0.500000000000
 rms dE/dt=  0.0000E+00; max dE/dt=  0.0000E+00; dE/dt below (all hartree)
    1       0.000000000000      0.000000000000      0.000000000000
    2       0.000000000000      0.000000000000      0.000000000000
    3       0.000000000000      0.000000000000      0.000000000000
    4       0.000000000000      0.000000000000      0.000000000000
    5       0.000000000000      0.000000000000      0.000000000000
 
 cartesian coordinates (angstrom) at end:
    1      0.00000000000000     0.00000000000000     0.00000000000000
    2      1.92104556148385     1.92104556148385     1.92104556148385
    3      1.92104556148385     0.00000000000000     0.00000000000000
    4      0.00000000000000     1.92104556148385     0.00000000000000
    5      0.00000000000000     0.00000000000000     1.92104556148385
 length scales=  7.260500000000  7.260500000000  7.260500000000 bohr
              =  3.842091122968  3.842091122968  3.842091122968 angstroms
 prteigrs : about to open file tdmft_2o_DS2_EIG
 Fermi (or HOMO) energy (hartree) =   0.29694   Average Vxc (hartree)=  -0.44721
 Eigenvalues (hartree) for nkpt=  10  k points:
 kpt#   1, nband= 30, wtk=  0.22222, kpt= -0.1667 -0.3333  0.0000 (reduced coord)
  -2.09624   -1.14825   -1.14751   -1.14714   -0.95755   -0.44785   -0.41014   -0.40752
  -0.29667   -0.29568   -0.28668    0.05865    0.08776    0.10106    0.10278    0.13113
   0.15111    0.17671    0.18251    0.18777    0.28894    0.32204    0.32272    0.36373
   0.43263    0.49379    0.50163    0.54058    0.54870    0.57907
      occupation numbers for kpt#   1
   2.00000    2.00000    2.00000    2.00000    2.00000    2.00000    2.00000    2.00000
   2.00000    2.00000    2.00000    2.00000    2.00000    2.00000    2.00000    2.00000
   2.00000    2.00000    2.00000    2.00000    1.09476    0.16564    0.16360    0.00000
   0.00000    0.00000    0.00000    0.00000    0.00000    0.00000
 kpt#   2, nband= 30, wtk=  0.07407, kpt= -0.1667 -0.1667  0.1667 (reduced coord)
  -2.09625   -1.14754   -1.14751   -1.14751   -0.95787   -0.44613   -0.41040   -0.41040
  -0.29791   -0.29791   -0.28915    0.07203    0.09561    0.09561    0.13087    0.13087
   0.15107    0.19120    0.19346    0.19346    0.29595    0.29979    0.29979    0.39403
   0.39403    0.47312    0.47312    0.50381    0.56308    0.56308
      occupation numbers for kpt#   2
   2.00000    2.00000    2.00000    2.00000    2.00000    2.00000    2.00000    2.00000
   2.00000    2.00000    2.00000    2.00000    2.00000    2.00000    2.00000    2.00000
   2.00000    2.00000    2.00000    2.00000    0.78556    0.62461    0.62461    0.00000
   0.00000    0.00000    0.00000    0.00000    0.00000    0.00000
 kpt#   3, nband= 30, wtk=  0.11111, kpt= -0.3333  0.5000  0.0000 (reduced coord)
  -2.09622   -1.14856   -1.14818   -1.14710   -0.95680   -0.43547   -0.41166   -0.40956
  -0.29455   -0.29226   -0.28884    0.04017    0.04943    0.06570    0.10421    0.11175
   0.15321    0.15578    0.16384    0.21410    0.32172    0.33578    0.34166    0.37855
   0.48911    0.53234    0.53728    0.57437    0.57888    0.59541
      occupation numbers for kpt#   3
   2.00000    2.00000    2.00000    2.00000    2.00000    2.00000    2.00000    2.00000
   2.00000    2.00000    2.00000    2.00000    2.00000    2.00000    2.00000    2.00000
   2.00000    2.00000    2.00000    2.00000    0.17132    0.11262    0.10355    0.00000
   0.00000    0.00000    0.00000    0.00000    0.00000    0.00000
 kpt#   4, nband= 30, wtk=  0.11111, kpt= -0.1667  0.5000  0.1667 (reduced coord)
  -2.09623   -1.14859   -1.14748   -1.14746   -0.95703   -0.44333   -0.40741   -0.40724
  -0.30060   -0.29153   -0.28727    0.04414    0.07623    0.08809    0.09797    0.09939
   0.14323    0.17494    0.18185    0.18367    0.30147    0.33640    0.33840    0.39173
   0.45567    0.52360    0.52447    0.56079    0.56834    0.56879
      occupation numbers for kpt#   4
   2.00000    2.00000    2.00000    2.00000    2.00000    2.00000    2.00000    2.00000
   2.00000    2.00000    2.00000    2.00000    2.00000    2.00000    2.00000    2.00000
   2.00000    2.00000    2.00000    2.00000    0.55364    0.11240    0.10530    0.00000
   0.00000    0.00000    0.00000    0.00000    0.00000    0.00000
 kpt#   5, nband= 30, wtk=  0.22222, kpt= -0.3333 -0.3333  0.1667 (reduced coord)
  -2.09622   -1.14819   -1.14817   -1.14745   -0.95682   -0.43439   -0.41129   -0.40667
  -0.30037   -0.29648   -0.28811    0.04843    0.07067    0.07147    0.09301    0.10464
   0.12097    0.18029    0.18602    0.21081    0.32462    0.32744    0.33506    0.41269
   0.47166    0.51899    0.53124    0.53585    0.56592    0.58377
      occupation numbers for kpt#   5
   2.00000    2.00000    2.00000    2.00000    2.00000    2.00000    2.00000    2.00000
   2.00000    2.00000    2.00000    2.00000    2.00000    2.00000    2.00000    2.00000
   2.00000    2.00000    2.00000    2.00000    0.15498    0.14097    0.11755    0.00000
   0.00000    0.00000    0.00000    0.00000    0.00000    0.00000
 kpt#   6, nband= 30, wtk=  0.05556, kpt= -0.1667  0.0000  0.0000 (reduced coord)
  -2.09626   -1.14757   -1.14719   -1.14719   -0.95845   -0.45041   -0.41050   -0.40988
  -0.29863   -0.29863   -0.29435    0.08687    0.10265    0.10265    0.16150    0.16150
   0.16687    0.18287    0.20625    0.20625    0.26421    0.28763    0.28763    0.34438
   0.37503    0.44201    0.44428    0.48071    0.53916    0.55371
      occupation numbers for kpt#   6
   2.00000    2.00000    2.00000    2.00000    2.00000    2.00000    2.00000    2.00000
   2.00000    2.00000    2.00000    2.00000    2.00000    2.00000    2.00000    2.00000
   2.00000    2.00000    2.00000    2.00000    1.53327    1.16797    1.16797    0.00001
   0.00000    0.00000    0.00000    0.00000    0.00000    0.00000
 kpt#   7, nband= 30, wtk=  0.05556, kpt=  0.5000  0.5000  0.1667 (reduced coord)
  -2.09621   -1.14850   -1.14850   -1.14742   -0.95635   -0.41944   -0.41163   -0.41163
  -0.29861   -0.29574   -0.29574    0.03440    0.04838    0.05646    0.09537    0.09537
   0.11274    0.18418    0.18418    0.22747    0.33968    0.33968    0.35003    0.41697
   0.51115    0.51805    0.55291    0.55846    0.55846    0.61600
      occupation numbers for kpt#   7
   2.00000    2.00000    2.00000    2.00000    2.00000    2.00000    2.00000    2.00000
   2.00000    2.00000    2.00000    2.00000    2.00000    2.00000    2.00000    2.00000
   2.00000    2.00000    2.00000    2.00000    0.10471    0.10471    0.08996    0.00000
   0.00000    0.00000    0.00000    0.00000    0.00000    0.00000
 kpt#   8, nband= 30, wtk=  0.11111, kpt= -0.3333  0.5000  0.3333 (reduced coord)
  -2.09620   -1.14848   -1.14812   -1.14811   -0.95613   -0.41808   -0.40708   -0.40387
  -0.30811   -0.30183   -0.29901    0.03984    0.06489    0.06800    0.07253    0.08398
   0.09006    0.20603    0.21048    0.21939    0.34162    0.34772    0.34963    0.46748
   0.49083    0.51744    0.51792    0.52140    0.57048    0.59675
      occupation numbers for kpt#   8
   2.00000    2.00000    2.00000    2.00000    2.00000    2.00000    2.00000    2.00000
   2.00000    2.00000    2.00000    2.00000    2.00000    2.00000    2.00000    2.00000
   2.00000    2.00000    2.00000    2.00000    0.10125    0.09182    0.08789    0.00000
   0.00000    0.00000    0.00000    0.00000    0.00000    0.00000
 kpt#   9, nband= 30, wtk=  0.02778, kpt=  0.5000  0.0000  0.0000 (reduced coord)
  -2.09624   -1.14864   -1.14713   -1.14713   -0.95748   -0.45394   -0.40888   -0.40326
  -0.29674   -0.29674   -0.28130    0.04726    0.09820    0.09820    0.12788    0.12851
   0.12851    0.14408    0.19994    0.19994    0.26768    0.33714    0.33714    0.34460
   0.43115    0.50583    0.50817    0.53252    0.59139    0.59139
      occupation numbers for kpt#   9
   2.00000    2.00000    2.00000    2.00000    2.00000    2.00000    2.00000    2.00000
   2.00000    2.00000    2.00000    2.00000    2.00000    2.00000    2.00000    2.00000
   2.00000    2.00000    2.00000    2.00000    1.48800    0.10643    0.10643    0.00001
   0.00000    0.00000    0.00000    0.00000    0.00000    0.00000
 kpt#  10, nband= 30, wtk=  0.00926, kpt=  0.5000  0.5000  0.5000 (reduced coord)
  -2.09619   -1.14843   -1.14843   -1.14843   -0.95567   -0.40200   -0.40200   -0.40200
  -0.31177   -0.31177   -0.31177    0.02868    0.05807    0.05807    0.08034    0.08034
   0.08034    0.23241    0.23241    0.23241    0.35865    0.35865    0.35865    0.48601
   0.48601    0.48601    0.51284    0.51284    0.59986    0.59986
      occupation numbers for kpt#  10
   2.00000    2.00000    2.00000    2.00000    2.00000    2.00000    2.00000    2.00000
   2.00000    2.00000    2.00000    2.00000    2.00000    2.00000    2.00000    2.00000
   2.00000    2.00000    2.00000    2.00000    0.07673    0.07673    0.07673    0.00000
   0.00000    0.00000    0.00000    0.00000    0.00000    0.00000
 Total charge density [el/Bohr^3]
      Maximum=    1.5048E+00  at reduced coord.    0.0000    0.0000    0.0000
 Next maximum=    1.4497E+00  at reduced coord.    0.0000    0.0000    0.9667
      Minimum=    6.2874E-03  at reduced coord.    0.5000    0.5000    0.0000
 Next minimum=    6.2874E-03  at reduced coord.    0.5000    0.0000    0.5000
   Integrated=    4.1000E+01
 
--------------------------------------------------------------------------------
 Components of total free energy (in Hartree) :
 
    Kinetic energy  =  4.32398671149841E+01
    Hartree energy  =  3.13440755038318E+01
    XC energy       = -2.24644478078213E+01
    Ewald energy    = -1.14220316979058E+02
    PspCore energy  =  6.53692522600451E+00
    Loc. psp. energy= -9.85502612952179E+01
    Spherical terms =  2.61907835478205E+00
    >>>>> Internal E= -1.51495079882494E+02
 
    >>>>>>>>> Etotal= -1.51495079882494E+02
 
 "Double-counting" decomposition of free energy:
    Band energy     = -1.47168745155417E+01
    Ewald energy    = -1.14220316979058E+02
    PspCore energy  =  6.53692522600451E+00
    Dble-C XC-energy= -2.44150426230022E+01
    Spherical terms = -4.67982505643460E+00
    >>>>> Internal E= -1.51495133948032E+02
 
    >>>> Etotal (DC)= -1.51495133948032E+02
 
  >Total energy in eV           = -4.12239077158391E+03
  >Total DC energy in eV        = -4.12239224278200E+03
--------------------------------------------------------------------------------
 
 Cartesian components of stress tensor (hartree/bohr^3)
  sigma(1 1)=  3.48019402E-03  sigma(3 2)=  0.00000000E+00
  sigma(2 2)=  3.48019402E-03  sigma(3 1)=  0.00000000E+00
  sigma(3 3)=  3.48019402E-03  sigma(2 1)=  0.00000000E+00
 
-Cartesian components of stress tensor (GPa)         [Pressure= -1.0239E+02 GPa]
- sigma(1 1)=  1.02390826E+02  sigma(3 2)=  0.00000000E+00
- sigma(2 2)=  1.02390826E+02  sigma(3 1)=  0.00000000E+00
- sigma(3 3)=  1.02390826E+02  sigma(2 1)=  0.00000000E+00
 
== END DATASET(S) ==============================================================
================================================================================
  
 -outvars: echo values of variables after computation  --------
            acell      7.2605000000E+00  7.2605000000E+00  7.2605000000E+00 Bohr
              amu      5.09415000E+01  8.76200000E+01  1.59994000E+01
        dmatpuopt           1
        dmftbandf1          0
        dmftbandf2         23
        dmftbandi1          0
        dmftbandi2         21
        dmft_iter1          0
        dmft_iter2          1
        dmft_mxsf1     3.0000000000E-01
        dmft_mxsf2     7.0000000000E-01
        dmft_nwli1          0
        dmft_nwli2     100000
        dmft_nwlo1          0
        dmft_nwlo2        100
        dmft_rslf1          0
        dmft_rslf2          1
             ecut      1.20000000E+01 Hartree
           etotal1    -1.5151701776E+02
           etotal2    -1.5149513395E+02
            fcart1     0.0000000000E+00  0.0000000000E+00  0.0000000000E+00
                       0.0000000000E+00  0.0000000000E+00  0.0000000000E+00
                       0.0000000000E+00  0.0000000000E+00  0.0000000000E+00
                       0.0000000000E+00  0.0000000000E+00  0.0000000000E+00
                       0.0000000000E+00  0.0000000000E+00  0.0000000000E+00
            fcart2     9.9999999999E+99  9.9999999999E+99  9.9999999999E+99
                       9.9999999999E+99  9.9999999999E+99  9.9999999999E+99
                       9.9999999999E+99  9.9999999999E+99  9.9999999999E+99
                       9.9999999999E+99  9.9999999999E+99  9.9999999999E+99
                       9.9999999999E+99  9.9999999999E+99  9.9999999999E+99
-          fftalg         312
           getwfk          -1
           istwfk        0    0    0    0    0    0    0    0    1    1
              ixc           7
           jdtset        1    2
            jpawu1     0.00000000E+00  0.00000000E+00  0.00000000E+00 Hartree
            jpawu2     2.78682384E-02  0.00000000E+00  0.00000000E+00 Hartree
              kpt     -1.66666667E-01 -3.33333333E-01  0.00000000E+00
                      -1.66666667E-01 -1.66666667E-01  1.66666667E-01
                      -3.33333333E-01  5.00000000E-01  0.00000000E+00
                      -1.66666667E-01  5.00000000E-01  1.66666667E-01
                      -3.33333333E-01 -3.33333333E-01  1.66666667E-01
                      -1.66666667E-01  0.00000000E+00  0.00000000E+00
                       5.00000000E-01  5.00000000E-01  1.66666667E-01
                      -3.33333333E-01  5.00000000E-01  3.33333333E-01
                       5.00000000E-01  0.00000000E+00  0.00000000E+00
                       5.00000000E-01  5.00000000E-01  5.00000000E-01
         kptrlatt        3   -3    3     -3    3    3     -3   -3    3
          kptrlen      3.77266647E+01
            lpawu           2      -1      -1
P           mkmem          10
            natom           5
            nband          30
           ndtset           2
            ngfft          24      24      24
          ngfftdg          30      30      30
             nkpt          10
            nline1          5
            nline2         10
           nnsclo1          5
           nnsclo2         10
            nstep1         30
            nstep2         10
             nsym          48
           ntypat           3
              occ1     2.000000  2.000000  2.000000  2.000000  2.000000  2.000000
                       2.000000  2.000000  2.000000  2.000000  2.000000  2.000000
                       2.000000  2.000000  2.000000  2.000000  2.000000  2.000000
                       2.000000  2.000000  1.782115  0.002764  0.002305  0.000000
                       0.000000  0.000000  0.000000  0.000000  0.000000  0.000000
                       2.000000  2.000000  2.000000  2.000000  2.000000  2.000000
                       2.000000  2.000000  2.000000  2.000000  2.000000  2.000000
                       2.000000  2.000000  2.000000  2.000000  2.000000  2.000000
                       2.000000  2.000000  1.128873  0.643094  0.643094  0.000000
                       0.000000  0.000000  0.000000  0.000000  0.000000  0.000000
                       2.000000  2.000000  2.000000  2.000000  2.000000  2.000000
                       2.000000  2.000000  2.000000  2.000000  2.000000  2.000000
                       2.000000  2.000000  2.000000  2.000000  2.000000  2.000000
                       2.000000  2.000000  0.003004  0.000075  0.000016  0.000000
                       0.000000  0.000000  0.000000  0.000000  0.000000  0.000000
                       2.000000  2.000000  2.000000  2.000000  2.000000  2.000000
                       2.000000  2.000000  2.000000  2.000000  2.000000  2.000000
                       2.000000  2.000000  2.000000  2.000000  2.000000  2.000000
                       2.000000  2.000000  0.467819  0.000064  0.000038  0.000000
                       0.000000  0.000000  0.000000  0.000000  0.000000  0.000000
                       2.000000  2.000000  2.000000  2.000000  2.000000  2.000000
                       2.000000  2.000000  2.000000  2.000000  2.000000  2.000000
                       2.000000  2.000000  2.000000  2.000000  2.000000  2.000000
                       2.000000  2.000000  0.001401  0.000669  0.000090  0.000000
                       0.000000  0.000000  0.000000  0.000000  0.000000  0.000000
                       2.000000  2.000000  2.000000  2.000000  2.000000  2.000000
                       2.000000  2.000000  2.000000  2.000000  2.000000  2.000000
                       2.000000  2.000000  2.000000  2.000000  2.000000  2.000000
                       2.000000  2.000000  1.999628  1.840592  1.840592  0.000008
                       0.000000  0.000000  0.000000  0.000000  0.000000  0.000000
                       2.000000  2.000000  2.000000  2.000000  2.000000  2.000000
                       2.000000  2.000000  2.000000  2.000000  2.000000  2.000000
                       2.000000  2.000000  2.000000  2.000000  2.000000  2.000000
                       2.000000  2.000000  0.000027  0.000027  0.000002  0.000000
                       0.000000  0.000000  0.000000  0.000000  0.000000  0.000000
                       2.000000  2.000000  2.000000  2.000000  2.000000  2.000000
                       2.000000  2.000000  2.000000  2.000000  2.000000  2.000000
                       2.000000  2.000000  2.000000  2.000000  2.000000  2.000000
                       2.000000  2.000000  0.000016  0.000003  0.000002  0.000000
                       0.000000  0.000000  0.000000  0.000000  0.000000  0.000000
                       2.000000  2.000000  2.000000  2.000000  2.000000  2.000000
                       2.000000  2.000000  2.000000  2.000000  2.000000  2.000000
                       2.000000  2.000000  2.000000  2.000000  2.000000  2.000000
                       2.000000  2.000000  1.999076  0.000053  0.000053  0.000007
                       0.000000  0.000000  0.000000  0.000000  0.000000  0.000000
                       2.000000  2.000000  2.000000  2.000000  2.000000  2.000000
                       2.000000  2.000000  2.000000  2.000000  2.000000  2.000000
                       2.000000  2.000000  2.000000  2.000000  2.000000  2.000000
                       2.000000  2.000000  0.000000  0.000000  0.000000  0.000000
                       0.000000  0.000000  0.000000  0.000000  0.000000  0.000000
              occ2     2.000000  2.000000  2.000000  2.000000  2.000000  2.000000
                       2.000000  2.000000  2.000000  2.000000  2.000000  2.000000
                       2.000000  2.000000  2.000000  2.000000  2.000000  2.000000
                       2.000000  2.000000  1.094764  0.165637  0.163600  0.000000
                       0.000000  0.000000  0.000000  0.000000  0.000000  0.000000
                       2.000000  2.000000  2.000000  2.000000  2.000000  2.000000
                       2.000000  2.000000  2.000000  2.000000  2.000000  2.000000
                       2.000000  2.000000  2.000000  2.000000  2.000000  2.000000
                       2.000000  2.000000  0.785564  0.624606  0.624606  0.000000
                       0.000000  0.000000  0.000000  0.000000  0.000000  0.000000
                       2.000000  2.000000  2.000000  2.000000  2.000000  2.000000
                       2.000000  2.000000  2.000000  2.000000  2.000000  2.000000
                       2.000000  2.000000  2.000000  2.000000  2.000000  2.000000
                       2.000000  2.000000  0.171323  0.112620  0.103554  0.000000
                       0.000000  0.000000  0.000000  0.000000  0.000000  0.000000
                       2.000000  2.000000  2.000000  2.000000  2.000000  2.000000
                       2.000000  2.000000  2.000000  2.000000  2.000000  2.000000
                       2.000000  2.000000  2.000000  2.000000  2.000000  2.000000
                       2.000000  2.000000  0.553637  0.112401  0.105305  0.000000
                       0.000000  0.000000  0.000000  0.000000  0.000000  0.000000
                       2.000000  2.000000  2.000000  2.000000  2.000000  2.000000
                       2.000000  2.000000  2.000000  2.000000  2.000000  2.000000
                       2.000000  2.000000  2.000000  2.000000  2.000000  2.000000
                       2.000000  2.000000  0.154976  0.140969  0.117549  0.000000
                       0.000000  0.000000  0.000000  0.000000  0.000000  0.000000
                       2.000000  2.000000  2.000000  2.000000  2.000000  2.000000
                       2.000000  2.000000  2.000000  2.000000  2.000000  2.000000
                       2.000000  2.000000  2.000000  2.000000  2.000000  2.000000
                       2.000000  2.000000  1.533266  1.167966  1.167966  0.000008
                       0.000000  0.000000  0.000000  0.000000  0.000000  0.000000
                       2.000000  2.000000  2.000000  2.000000  2.000000  2.000000
                       2.000000  2.000000  2.000000  2.000000  2.000000  2.000000
                       2.000000  2.000000  2.000000  2.000000  2.000000  2.000000
                       2.000000  2.000000  0.104709  0.104709  0.089964  0.000000
                       0.000000  0.000000  0.000000  0.000000  0.000000  0.000000
                       2.000000  2.000000  2.000000  2.000000  2.000000  2.000000
                       2.000000  2.000000  2.000000  2.000000  2.000000  2.000000
                       2.000000  2.000000  2.000000  2.000000  2.000000  2.000000
                       2.000000  2.000000  0.101252  0.091823  0.087891  0.000000
                       0.000000  0.000000  0.000000  0.000000  0.000000  0.000000
                       2.000000  2.000000  2.000000  2.000000  2.000000  2.000000
                       2.000000  2.000000  2.000000  2.000000  2.000000  2.000000
                       2.000000  2.000000  2.000000  2.000000  2.000000  2.000000
                       2.000000  2.000000  1.487998  0.106426  0.106426  0.000007
                       0.000000  0.000000  0.000000  0.000000  0.000000  0.000000
                       2.000000  2.000000  2.000000  2.000000  2.000000  2.000000
                       2.000000  2.000000  2.000000  2.000000  2.000000  2.000000
                       2.000000  2.000000  2.000000  2.000000  2.000000  2.000000
                       2.000000  2.000000  0.076731  0.076731  0.076731  0.000000
                       0.000000  0.000000  0.000000  0.000000  0.000000  0.000000
           occopt           3
        optforces1          2
        optforces2          0
        pawecutdg      2.00000000E+01 Hartree
        pawprtvol           3
           prtvol           4
           shiftk      5.00000000E-01  5.00000000E-01  5.00000000E-01
          spgroup         221
           strten1     3.5333102387E-03  3.5333102387E-03  3.5333102387E-03
                       0.0000000000E+00  0.0000000000E+00  0.0000000000E+00
           strten2     3.4801940202E-03  3.4801940202E-03  3.4801940202E-03
                       0.0000000000E+00  0.0000000000E+00  0.0000000000E+00
           symrel      1  0  0   0  1  0   0  0  1      -1  0  0   0 -1  0   0  0 -1
                      -1  0  0   0  1  0   0  0 -1       1  0  0   0 -1  0   0  0  1
                      -1  0  0   0 -1  0   0  0  1       1  0  0   0  1  0   0  0 -1
                       1  0  0   0 -1  0   0  0 -1      -1  0  0   0  1  0   0  0  1
                       0  1  0   1  0  0   0  0  1       0 -1  0  -1  0  0   0  0 -1
                       0 -1  0   1  0  0   0  0 -1       0  1  0  -1  0  0   0  0  1
                       0 -1  0  -1  0  0   0  0  1       0  1  0   1  0  0   0  0 -1
                       0  1  0  -1  0  0   0  0 -1       0 -1  0   1  0  0   0  0  1
                       0  0  1   1  0  0   0  1  0       0  0 -1  -1  0  0   0 -1  0
                       0  0 -1   1  0  0   0 -1  0       0  0  1  -1  0  0   0  1  0
                       0  0 -1  -1  0  0   0  1  0       0  0  1   1  0  0   0 -1  0
                       0  0  1  -1  0  0   0 -1  0       0  0 -1   1  0  0   0  1  0
                       1  0  0   0  0  1   0  1  0      -1  0  0   0  0 -1   0 -1  0
                      -1  0  0   0  0  1   0 -1  0       1  0  0   0  0 -1   0  1  0
                      -1  0  0   0  0 -1   0  1  0       1  0  0   0  0  1   0 -1  0
                       1  0  0   0  0 -1   0 -1  0      -1  0  0   0  0  1   0  1  0
                       0  1  0   0  0  1   1  0  0       0 -1  0   0  0 -1  -1  0  0
                       0 -1  0   0  0  1  -1  0  0       0  1  0   0  0 -1   1  0  0
                       0 -1  0   0  0 -1   1  0  0       0  1  0   0  0  1  -1  0  0
                       0  1  0   0  0 -1  -1  0  0       0 -1  0   0  0  1   1  0  0
                       0  0  1   0  1  0   1  0  0       0  0 -1   0 -1  0  -1  0  0
                       0  0 -1   0  1  0  -1  0  0       0  0  1   0 -1  0   1  0  0
                       0  0 -1   0 -1  0   1  0  0       0  0  1   0  1  0  -1  0  0
                       0  0  1   0 -1  0  -1  0  0       0  0 -1   0  1  0   1  0  0
           tolvrs      1.00000000E-07
           tsmear      3.80017850E-03 Hartree
            typat      1  2  3  3  3
            upawu1     0.00000000E+00  0.00000000E+00  0.00000000E+00 Hartree
            upawu2     1.15147886E-01  0.00000000E+00  0.00000000E+00 Hartree
          usedmft1          0
          usedmft2          1
          usepawu1          1
          usepawu2         10
           useylm           1
              wtk        0.22222    0.07407    0.11111    0.11111    0.22222    0.05556
                         0.05556    0.11111    0.02778    0.00926
           xangst      0.0000000000E+00  0.0000000000E+00  0.0000000000E+00
                       1.9210455615E+00  1.9210455615E+00  1.9210455615E+00
                       1.9210455615E+00  0.0000000000E+00  0.0000000000E+00
                       0.0000000000E+00  1.9210455615E+00  0.0000000000E+00
                       0.0000000000E+00  0.0000000000E+00  1.9210455615E+00
            xcart      0.0000000000E+00  0.0000000000E+00  0.0000000000E+00
                       3.6302500000E+00  3.6302500000E+00  3.6302500000E+00
                       3.6302500000E+00  0.0000000000E+00  0.0000000000E+00
                       0.0000000000E+00  3.6302500000E+00  0.0000000000E+00
                       0.0000000000E+00  0.0000000000E+00  3.6302500000E+00
             xred      0.0000000000E+00  0.0000000000E+00  0.0000000000E+00
                       5.0000000000E-01  5.0000000000E-01  5.0000000000E-01
                       5.0000000000E-01  0.0000000000E+00  0.0000000000E+00
                       0.0000000000E+00  5.0000000000E-01  0.0000000000E+00
                       0.0000000000E+00  0.0000000000E+00  5.0000000000E-01
            znucl       23.00000   38.00000    8.00000
 
================================================================================


- Timing analysis has been suppressed with timopt=0



================================================================================

 Suggested references for the acknowledgment of ABINIT usage.

 The users of ABINIT have little formal obligations with respect to the ABINIT group
 (those specified in the GNU General Public License, http://www.gnu.org/copyleft/gpl.txt).
 However, it is common practice in the scientific literature,
 to acknowledge the efforts of people that have made the research possible.
 In this spirit, please find below suggested citations of work written by ABINIT developers,
 corresponding to implementations inside of ABINIT that you have used in the present run.
 Note also that it will be of great value to readers of publications presenting these results,
 to read papers enabling them to understand the theoretical formalism and details
 of the ABINIT implementation.
 For information on why they are suggested, see also https://docs.abinit.org/theory/acknowledgments.
-
- [1] A self-consistent DFT + DMFT scheme in the projector augmented wave method: 
- applications to cerium, Ce2O3 and Pu2O3 with the Hubbard I solver and comparison to DFT + U,
- B. Amadon,  J. Phys.: Condens. Matter 24 075604 (2012).
- Comment : Describes the self-consistent implementation of DFT+DMFT in PAW
- DOI and bibtex : see https://docs.abinit.org/theory/bibliography/#amadon2012
-
- [2] Plane-wave based electronic structure calculations for correlated materials.
- using dynamical mean-field theory and projected local orbitals,
- B. Amadon, F. Lechermann, A. Georges, F. Jollet, T.O. Wehling, A.I. Lichenstein,
- Phys. Rev. B 77, 205112 (2008).
- Comment : to be cited in case the computation of overlap operator for Wannier90 interface within PAW is used,
- i.e. prtwant=2 and usepaw=1. The paper describes also the DFT+DMFT implementation on Wannier functions
- DOI and bibtex : see https://docs.abinit.org/theory/bibliography/#amadon2008
-
- [3] Gamma and beta cerium: LDA+U calculations of ground-state parameters.
- B. Amadon, F. Jollet and M. Torrent, Phys. Rev. B 77, 155104 (2008).
- Comment : LDA+U calculations, usepawu/=0. Strong suggestion to cite this paper.
- DOI and bibtex : see https://docs.abinit.org/theory/bibliography/#amadon2008a
-
- [4] Implementation of the Projector Augmented-Wave Method in the ABINIT code.
- M. Torrent, F. Jollet, F. Bottin, G. Zerah, and X. Gonze Comput. Mat. Science 42, 337, (2008).
- Comment : PAW calculations. Strong suggestion to cite this paper.
- DOI and bibtex : see https://docs.abinit.org/theory/bibliography/#torrent2008
-
- [5] Recent developments in the ABINIT software package.
- Computer Phys. Comm. 205, 106 (2016).
- X.Gonze, F.Jollet, F.Abreu Araujo, D.Adams, B.Amadon, T.Applencourt,
- C.Audouze, J.-M.Beuken, J.Bieder, A.Bokhanchuk, E.Bousquet, F.Bruneval
- D.Caliste, M.Cote, F.Dahm, F.Da Pieve, M.Delaveau, M.Di Gennaro,
- B.Dorado, C.Espejo, G.Geneste, L.Genovese, A.Gerossier, M.Giantomassi,
- Y.Gillet, D.R.Hamann, L.He, G.Jomard, J.Laflamme Janssen, S.Le Roux,
- A.Levitt, A.Lherbier, F.Liu, I.Lukacevic, A.Martin, C.Martins,
- M.J.T.Oliveira, S.Ponce, Y.Pouillon, T.Rangel, G.-M.Rignanese,
- A.H.Romero, B.Rousseau, O.Rubel, A.A.Shukri, M.Stankovski, M.Torrent,
- M.J.Van Setten, B.Van Troeye, M.J.Verstraete, D.Waroquier, J.Wiktor,
- B.Xu, A.Zhou, J.W.Zwanziger.
- Comment : the fourth generic paper describing the ABINIT project.
- Note that a version of this paper, that is not formatted for Computer Phys. Comm. 
- is available at https://www.abinit.org/about/ABINIT16.pdf .
- The licence allows the authors to put it on the Web.
- DOI and bibtex : see https://docs.abinit.org/theory/bibliography/#gonze2016
-
- [6] ABINIT : First-principles approach of materials and nanosystem properties.
- Computer Phys. Comm. 180, 2582-2615 (2009).
- X. Gonze, B. Amadon, P.-M. Anglade, J.-M. Beuken, F. Bottin, P. Boulanger, F. Bruneval,
- D. Caliste, R. Caracas, M. Cote, T. Deutsch, L. Genovese, Ph. Ghosez, M. Giantomassi
- S. Goedecker, D.R. Hamann, P. Hermet, F. Jollet, G. Jomard, S. Leroux, M. Mancini, S. Mazevet,
- M.J.T. Oliveira, G. Onida, Y. Pouillon, T. Rangel, G.-M. Rignanese, D. Sangalli, R. Shaltaf,
- M. Torrent, M.J. Verstraete, G. Zerah, J.W. Zwanziger
- Comment : the third generic paper describing the ABINIT project.
- Note that a version of this paper, that is not formatted for Computer Phys. Comm. 
- is available at https://www.abinit.org/about/ABINIT_CPC_v10.pdf .
- The licence allows the authors to put it on the Web.
- DOI and bibtex : see https://docs.abinit.org/theory/bibliography/#gonze2009
-
- [7] A brief introduction to the ABINIT software package.
- Z. Kristallogr. 220, 558-562 (2005).
- X. Gonze, G.-M. Rignanese, M. Verstraete, J.-M. Beuken, Y. Pouillon, R. Caracas, F. Jollet,
- M. Torrent, G. Zerah, M. Mikami, Ph. Ghosez, M. Veithen, J.-Y. Raty, V. Olevano, F. Bruneval,
- L. Reining, R. Godby, G. Onida, D.R. Hamann, and D.C. Allan.
- Comment : the second generic paper describing the ABINIT project. Note that this paper
- should be cited especially if you are using the GW part of ABINIT, as several authors
- of this part are not in the list of authors of the first or third paper.
- The .pdf of the latter paper is available at https://www.abinit.org/about/zfk_0505-06_558-562.pdf.
- Note that it should not redistributed (Copyright by Oldenburg Wissenshaftverlag,
- the licence allows the authors to put it on the Web).
- DOI and bibtex : see https://docs.abinit.org/theory/bibliography/#gonze2005
-
- Proc.   0 individual time (sec): cpu=        143.0  wall=        143.7
 
================================================================================
 
 Calculation completed.
.Delivered  30 WARNINGs and   4 COMMENTs to log file.
+Overall time at end (sec) : cpu=        143.0  wall=        143.7
