  ABINIT 8.10.2
  
  Give name for formatted input file: 
tpaw1_4.in
  Give name for formatted output file:
tpaw1_4.out
  Give root name for generic input files:
tpaw1_4i
  Give root name for generic output files:
tpaw1_4o
  Give root name for generic temporary files:
tpaw1_4tmp
 
--- !COMMENT
src_file: m_dtfil.F90
src_line: 1159
message: |
    Output file tpaw1_4.out
     already exists.
...
 
 
--- !COMMENT
src_file: m_dtfil.F90
src_line: 1183
message: |
    Renaming old tpaw1_4.out to tpaw1_4.out0001
...
 

.Version 8.10.2 of ABINIT 
.(MPI version, prepared for a x86_64_linux_intel18.0 computer) 

.Copyright (C) 1998-2018 ABINIT group . 
 ABINIT comes with ABSOLUTELY NO WARRANTY.
 It is free software, and you are welcome to redistribute it
 under certain conditions (GNU General Public License,
 see ~abinit/COPYING or http://www.gnu.org/copyleft/gpl.txt).

 ABINIT is a project of the Universite Catholique de Louvain,
 Corning Inc. and other collaborators, see ~abinit/doc/developers/contributors.txt .
 Please read https://docs.abinit.org/theory/acknowledgments for suggested
 acknowledgments of the ABINIT effort.
 For more information, see https://www.abinit.org .

.Starting date : Thu 18 Oct 2018.
- ( at 16h02 )
  
 
 ++++++++++++++++++++++++++++++++++++++++++++++++++++++++++++++++++++++++++++++
 
 === Build Information === 
  Version       : 8.10.2
  Build target  : x86_64_linux_intel18.0
  Build date    : 20181015
 
 === Compiler Suite === 
  C compiler       : intel18.0
  C++ compiler     : gnu18.0
  Fortran compiler : intel18.0
  CFLAGS           :  -g -O2 -vec-report0
  CXXFLAGS         :  -g -O2 -mtune=native -march=native
  FCFLAGS          :  -g -extend-source -noaltparam -nofpscomp
  FC_LDFLAGS       :    -static-intel -static-libgcc
 
 === Optimizations === 
  Debug level        : basic
  Optimization level : standard
  Architecture       : intel_xeon
 
 === Multicore === 
  Parallel build : yes
  Parallel I/O   : auto
  openMP support : no
  GPU support    : no
 
 === Connectors / Fallbacks === 
  Connectors on : yes
  Fallbacks on  : yes
  DFT flavor    : none
  FFT flavor    : fftw3
  LINALG flavor : mkl
  MATH flavor   : none
  TIMER flavor  : abinit
  TRIO flavor   : none
 
 === Experimental features === 
  Bindings            : @enable_bindings@
  Exports             : no
  GW double-precision : no
 
 ++++++++++++++++++++++++++++++++++++++++++++++++++++++++++++++++++++++++++++++
 

 ++++++++++++++++++++++++++++++++++++++++++++++++++++++++++++++++++++++++++++++
 Default optimizations:
   -O3


 Optimizations for 43_ptgroups:
   -O0


 ++++++++++++++++++++++++++++++++++++++++++++++++++++++++++++++++++++++++++++++


 ++++++++++++++++++++++++++++++++++++++++++++++++++++++++++++++++++++++++++++++
 CPP options activated during the build:

                  CC_INTEL                   CXX_GNU                  FC_INTEL
 
 HAVE_FC_ALLOCATABLE_DT...             HAVE_FC_ASYNC  HAVE_FC_COMMAND_ARGUMENT
 
      HAVE_FC_COMMAND_LINE        HAVE_FC_CONTIGUOUS           HAVE_FC_CPUTIME
 
              HAVE_FC_EXIT             HAVE_FC_FLUSH             HAVE_FC_GAMMA
 
   HAVE_FC_IEEE_EXCEPTIONS             HAVE_FC_IOMSG     HAVE_FC_ISO_C_BINDING
 
  HAVE_FC_ISO_FORTRAN_2008        HAVE_FC_LONG_LINES        HAVE_FC_MOVE_ALLOC
 
           HAVE_FC_PRIVATE         HAVE_FC_PROTECTED         HAVE_FC_STREAM_IO
 
                  HAVE_FFT            HAVE_FFT_FFTW3              HAVE_FFT_MPI
 
           HAVE_FFT_SERIAL        HAVE_LIBPAW_ABINIT      HAVE_LIBTETRA_ABINIT
 
               HAVE_LINALG        HAVE_LINALG_SERIAL                  HAVE_MPI
 
                 HAVE_MPI2       HAVE_MPI_IALLREDUCE        HAVE_MPI_IALLTOALL
 
       HAVE_MPI_IALLTOALLV        HAVE_MPI_INTEGER16               HAVE_MPI_IO
 
 HAVE_MPI_TYPE_CREATE_S...                HAVE_NUMPY             HAVE_OS_LINUX
 
         HAVE_TIMER_ABINIT              USE_MACROAVE                            
 ++++++++++++++++++++++++++++++++++++++++++++++++++++++++++++++++++++++++++++++

- input  file    -> tpaw1_4.in
- output file    -> tpaw1_4.out
- root for input  files -> tpaw1_4i
- root for output files -> tpaw1_4o
 
-instrng: 63 lines of input have been read from file tpaw1_4.in
 

 Please give name of formatted atomic psp file
 iofn2 : for atom type 1, psp file is ../../../Psps_for_tests/6c.lda.atompaw
  read the values zionpsp=  4.0 , pspcod=   7 , lmax=   1
 2 0.                                   : shape_type,rshape                     
  
 
 inpspheads: deduce mpsang = 2, n1xccc = 1.
 invars1 : treat image number: 1
 
 symlatt : the Bravais lattice is cF (face-centered cubic)
  xred   is defined in input file
 ingeo: takes atomic coordinates from input array xred
 
 symlatt : the Bravais lattice is cF (face-centered cubic)
 
 symlatt : the Bravais lattice is cF (face-centered cubic)
 symspgr : spgroup= 227  Fd -3 m   (=Oh^7)
 symspgr : optical characteristics = isotropic
 ingeo: angdeg(1:3)=   60.00000000   60.00000000   60.00000000
 chkneu : initialized the occupation numbers for occopt=    7, spin-unpolarized or antiferromagnetic case :
  2.00  2.00  2.00  2.00  0.00  0.00
mpi_setup: mkmem  undefined in the input file.Use default mkmem  = nkpt
 mpi_setup: With nkpt_me=110 and mkmem  = 110, ground state wf handled in core.
mpi_setup: mkqmem undefined in the input file.Use default mkqmem = nkpt
 mpi_setup: With nkpt_me=110 and mkqmem = 110, ground state wf handled in core.
mpi_setup: mk1mem undefined in the input file.Use default mk1mem = nkpt
 mpi_setup: With nkpt_me=110 and mk1mem = 110, ground state wf handled in core.
getng is called for the coarse grid:
 For input ecut=  1.200000E+01 best grid ngfft=      16      16      16
       max ecut=  1.390195E+01
 
 ==== FFT mesh ====
  FFT mesh divisions ........................    16   16   16
  Augmented FFT divisions ...................    17   17   16
  FFT algorithm .............................   312
  FFT cache size ............................    16
 getmpw: optimal value of mpw= 165
getng is called for the fine grid:
 Using supplied coarse mesh as initial guess.
 For input ecut=  2.400000E+01 best grid ngfft=      24      24      24
       max ecut=  3.127939E+01
 
 ==== FFT mesh ====
  FFT mesh divisions ........................    24   24   24
  Augmented FFT divisions ...................    25   25   24
  FFT algorithm .............................   312
  FFT cache size ............................    16
 
 Symmetries : space group Fd -3 m (#227); Bravais cF (face-center cubic)
 
 getdim_nloc : deduce lmnmax  =   8, lnmax  =   4,
                      lmnmaxso=   8, lnmaxso=   4.
memory : analysis of memory needs
================================================================================
 Values of the parameters that define the memory need of the present run
     intxc =       0    ionmov =       0      iscf =      17    lmnmax =       8
     lnmax =       4     mgfft =      16  mpssoang =       2    mqgrid =    3001
     natom =       2  nloc_mem =       2    nspden =       1   nspinor =       1
    nsppol =       1      nsym =      48    n1xccc =       1    ntypat =       1
    occopt =       7   xclevel =       1
-    mband =           6        mffmem =           1         mkmem =         110
       mpw =         165          nfft =        4096          nkpt =         110
 PAW method is used; the additional fine FFT grid is defined by:
   mgfftf=        24    nfftf =     13824
================================================================================
P This job should need less than                       6.880 Mbytes of memory.
  Rough estimation (10% accuracy) of disk space for files :
_ WF disk file :      1.664 Mbytes ; DEN or POT disk file :      0.107 Mbytes.
================================================================================
 
 Biggest array : cg(disk), with      1.6637 MBytes.
 memana : allocated an array of      1.664 Mbytes, for testing purposes.
 memana: allocated       6.880Mbytes, for testing purposes. 
 The job will continue.
--------------------------------------------------------------------------------
------------- Echo of variables that govern the present computation ------------
--------------------------------------------------------------------------------
-
- outvars: echo of selected default values                                      
-   iomode0 =  0 , fftalg0 =312 , wfoptalg0 = 10
-
- outvars: echo of global parameters not present in the input file              
-  max_nthreads =    0
-
 -outvars: echo values of preprocessed input variables --------
            acell      6.7406531160E+00  6.7406531160E+00  6.7406531160E+00 Bohr
              amu      1.20110000E+01
             ecut      1.20000000E+01 Hartree
           ecutsm      5.00000000E-01 Hartree
-          fftalg         312
           iatsph        1
              ixc           7
              kpt     -5.00000000E-02 -1.00000000E-01  0.00000000E+00
                      -5.00000000E-02 -2.00000000E-01  0.00000000E+00
                      -1.00000000E-01 -1.50000000E-01  0.00000000E+00
                      -5.00000000E-02 -1.50000000E-01  5.00000000E-02
                      -5.00000000E-02 -3.00000000E-01  0.00000000E+00
                      -1.00000000E-01 -2.50000000E-01  0.00000000E+00
                      -5.00000000E-02 -2.50000000E-01  5.00000000E-02
                      -1.50000000E-01 -2.00000000E-01  0.00000000E+00
                      -1.00000000E-01 -2.00000000E-01  5.00000000E-02
                      -5.00000000E-02 -2.00000000E-01  1.00000000E-01
                      -5.00000000E-02 -4.00000000E-01  0.00000000E+00
                      -1.00000000E-01 -3.50000000E-01  0.00000000E+00
                      -5.00000000E-02 -3.50000000E-01  5.00000000E-02
                      -1.50000000E-01 -3.00000000E-01  0.00000000E+00
                      -1.00000000E-01 -3.00000000E-01  5.00000000E-02
                      -5.00000000E-02 -3.00000000E-01  1.00000000E-01
                      -2.00000000E-01 -2.50000000E-01  0.00000000E+00
                      -1.50000000E-01 -2.50000000E-01  5.00000000E-02
                      -1.00000000E-01 -2.50000000E-01  1.00000000E-01
                      -5.00000000E-02 -2.50000000E-01  1.50000000E-01
                      -5.00000000E-02  5.00000000E-01  0.00000000E+00
                      -1.00000000E-01 -4.50000000E-01  0.00000000E+00
                      -5.00000000E-02 -4.50000000E-01  5.00000000E-02
                      -1.50000000E-01 -4.00000000E-01  0.00000000E+00
                      -1.00000000E-01 -4.00000000E-01  5.00000000E-02
                      -5.00000000E-02 -4.00000000E-01  1.00000000E-01
                      -2.00000000E-01 -3.50000000E-01  0.00000000E+00
                      -1.50000000E-01 -3.50000000E-01  5.00000000E-02
                      -1.00000000E-01 -3.50000000E-01  1.00000000E-01
                      -5.00000000E-02 -3.50000000E-01  1.50000000E-01
                      -2.50000000E-01 -3.00000000E-01  0.00000000E+00
                      -2.00000000E-01 -3.00000000E-01  5.00000000E-02
                      -1.50000000E-01 -3.00000000E-01  1.00000000E-01
                      -1.00000000E-01 -3.00000000E-01  1.50000000E-01
                      -5.00000000E-02 -3.00000000E-01  2.00000000E-01
                      -5.00000000E-02  4.00000000E-01  0.00000000E+00
                      -1.00000000E-01  4.50000000E-01  0.00000000E+00
                      -1.50000000E-01  5.00000000E-01  0.00000000E+00
                      -1.00000000E-01  5.00000000E-01  5.00000000E-02
                      -2.00000000E-01 -4.50000000E-01  0.00000000E+00
                      -1.50000000E-01 -4.50000000E-01  5.00000000E-02
                      -1.00000000E-01 -4.50000000E-01  1.00000000E-01
                      -5.00000000E-02 -4.50000000E-01  1.50000000E-01
                      -2.50000000E-01 -4.00000000E-01  0.00000000E+00
                      -2.00000000E-01 -4.00000000E-01  5.00000000E-02
                      -1.50000000E-01 -4.00000000E-01  1.00000000E-01
                      -1.00000000E-01 -4.00000000E-01  1.50000000E-01
                      -5.00000000E-02 -4.00000000E-01  2.00000000E-01
                      -3.00000000E-01 -3.50000000E-01  0.00000000E+00
                      -2.50000000E-01 -3.50000000E-01  5.00000000E-02
                       outvar_i_n : Printing only first  50 k-points.
         kptrlatt       10  -10   10    -10   10   10    -10  -10   10
          kptrlen      6.74065312E+01
P           mkmem         110
            natom           2
           natsph        1
            nband           6
           nbdbuf           2
            ngfft          16      16      16
          ngfftdg          24      24      24
             nkpt         110
            nstep          10
             nsym          48
           ntypat           1
              occ      2.000000  2.000000  2.000000  2.000000  0.000000  0.000000
                       2.000000  2.000000  2.000000  2.000000  0.000000  0.000000
                       2.000000  2.000000  2.000000  2.000000  0.000000  0.000000
                       2.000000  2.000000  2.000000  2.000000  0.000000  0.000000
                       2.000000  2.000000  2.000000  2.000000  0.000000  0.000000
                       2.000000  2.000000  2.000000  2.000000  0.000000  0.000000
                       2.000000  2.000000  2.000000  2.000000  0.000000  0.000000
                       2.000000  2.000000  2.000000  2.000000  0.000000  0.000000
                       2.000000  2.000000  2.000000  2.000000  0.000000  0.000000
                       2.000000  2.000000  2.000000  2.000000  0.000000  0.000000
                       2.000000  2.000000  2.000000  2.000000  0.000000  0.000000
                       2.000000  2.000000  2.000000  2.000000  0.000000  0.000000
                       2.000000  2.000000  2.000000  2.000000  0.000000  0.000000
                       2.000000  2.000000  2.000000  2.000000  0.000000  0.000000
                       2.000000  2.000000  2.000000  2.000000  0.000000  0.000000
                       2.000000  2.000000  2.000000  2.000000  0.000000  0.000000
                       2.000000  2.000000  2.000000  2.000000  0.000000  0.000000
                       2.000000  2.000000  2.000000  2.000000  0.000000  0.000000
                       2.000000  2.000000  2.000000  2.000000  0.000000  0.000000
                       2.000000  2.000000  2.000000  2.000000  0.000000  0.000000
                       2.000000  2.000000  2.000000  2.000000  0.000000  0.000000
                       2.000000  2.000000  2.000000  2.000000  0.000000  0.000000
                       2.000000  2.000000  2.000000  2.000000  0.000000  0.000000
                       2.000000  2.000000  2.000000  2.000000  0.000000  0.000000
                       2.000000  2.000000  2.000000  2.000000  0.000000  0.000000
                       2.000000  2.000000  2.000000  2.000000  0.000000  0.000000
                       2.000000  2.000000  2.000000  2.000000  0.000000  0.000000
                       2.000000  2.000000  2.000000  2.000000  0.000000  0.000000
                       2.000000  2.000000  2.000000  2.000000  0.000000  0.000000
                       2.000000  2.000000  2.000000  2.000000  0.000000  0.000000
                       2.000000  2.000000  2.000000  2.000000  0.000000  0.000000
                       2.000000  2.000000  2.000000  2.000000  0.000000  0.000000
                       2.000000  2.000000  2.000000  2.000000  0.000000  0.000000
                       2.000000  2.000000  2.000000  2.000000  0.000000  0.000000
                       2.000000  2.000000  2.000000  2.000000  0.000000  0.000000
                       2.000000  2.000000  2.000000  2.000000  0.000000  0.000000
                       2.000000  2.000000  2.000000  2.000000  0.000000  0.000000
                       2.000000  2.000000  2.000000  2.000000  0.000000  0.000000
                       2.000000  2.000000  2.000000  2.000000  0.000000  0.000000
                       2.000000  2.000000  2.000000  2.000000  0.000000  0.000000
                       2.000000  2.000000  2.000000  2.000000  0.000000  0.000000
                       2.000000  2.000000  2.000000  2.000000  0.000000  0.000000
                       2.000000  2.000000  2.000000  2.000000  0.000000  0.000000
                       2.000000  2.000000  2.000000  2.000000  0.000000  0.000000
                       2.000000  2.000000  2.000000  2.000000  0.000000  0.000000
                       2.000000  2.000000  2.000000  2.000000  0.000000  0.000000
                       2.000000  2.000000  2.000000  2.000000  0.000000  0.000000
                       2.000000  2.000000  2.000000  2.000000  0.000000  0.000000
                       2.000000  2.000000  2.000000  2.000000  0.000000  0.000000
                       2.000000  2.000000  2.000000  2.000000  0.000000  0.000000
                       prtocc : prtvol=0, do not print more k-points.
           occopt           7
        pawecutdg      2.40000000E+01 Hartree
        pawprtdos           1
           prtden           0
           prtdos           3
           prteig           0
            prtwf           0
            rprim      0.0000000000E+00  5.0000000000E-01  5.0000000000E-01
                       5.0000000000E-01  0.0000000000E+00  5.0000000000E-01
                       5.0000000000E-01  5.0000000000E-01  0.0000000000E+00
           shiftk      5.00000000E-01  5.00000000E-01  5.00000000E-01
          spgroup         227
           symrel      1  0  0   0  1  0   0  0  1      -1  0  0   0 -1  0   0  0 -1
                       0 -1  1   0 -1  0   1 -1  0       0  1 -1   0  1  0  -1  1  0
                      -1  0  0  -1  0  1  -1  1  0       1  0  0   1  0 -1   1 -1  0
                       0  1 -1   1  0 -1   0  0 -1       0 -1  1  -1  0  1   0  0  1
                      -1  0  0  -1  1  0  -1  0  1       1  0  0   1 -1  0   1  0 -1
                       0 -1  1   1 -1  0   0 -1  0       0  1 -1  -1  1  0   0  1  0
                       1  0  0   0  0  1   0  1  0      -1  0  0   0  0 -1   0 -1  0
                       0  1 -1   0  0 -1   1  0 -1       0 -1  1   0  0  1  -1  0  1
                      -1  0  1  -1  1  0  -1  0  0       1  0 -1   1 -1  0   1  0  0
                       0 -1  0   1 -1  0   0 -1  1       0  1  0  -1  1  0   0  1 -1
                       1  0 -1   0  0 -1   0  1 -1      -1  0  1   0  0  1   0 -1  1
                       0  1  0   0  0  1   1  0  0       0 -1  0   0  0 -1  -1  0  0
                       1  0 -1   0  1 -1   0  0 -1      -1  0  1   0 -1  1   0  0  1
                       0 -1  0   0 -1  1   1 -1  0       0  1  0   0  1 -1  -1  1  0
                      -1  0  1  -1  0  0  -1  1  0       1  0 -1   1  0  0   1 -1  0
                       0  1  0   1  0  0   0  0  1       0 -1  0  -1  0  0   0  0 -1
                       0  0 -1   0  1 -1   1  0 -1       0  0  1   0 -1  1  -1  0  1
                       1 -1  0   0 -1  1   0 -1  0      -1  1  0   0  1 -1   0  1  0
                       0  0  1   1  0  0   0  1  0       0  0 -1  -1  0  0   0 -1  0
                      -1  1  0  -1  0  0  -1  0  1       1 -1  0   1  0  0   1  0 -1
                       0  0  1   0  1  0   1  0  0       0  0 -1   0 -1  0  -1  0  0
                       1 -1  0   0 -1  0   0 -1  1      -1  1  0   0  1  0   0  1 -1
                       0  0 -1   1  0 -1   0  1 -1       0  0  1  -1  0  1   0 -1  1
                      -1  1  0  -1  0  1  -1  0  0       1 -1  0   1  0 -1   1  0  0
            tnons      0.0000000  0.0000000  0.0000000     0.2500000  0.2500000  0.2500000
                       0.0000000  0.0000000  0.0000000     0.2500000  0.2500000  0.2500000
                       0.0000000  0.0000000  0.0000000     0.2500000  0.2500000  0.2500000
                       0.0000000  0.0000000  0.0000000     0.2500000  0.2500000  0.2500000
                       0.0000000  0.0000000  0.0000000     0.2500000  0.2500000  0.2500000
                       0.0000000  0.0000000  0.0000000     0.2500000  0.2500000  0.2500000
                       0.0000000  0.0000000  0.0000000     0.2500000  0.2500000  0.2500000
                       0.0000000  0.0000000  0.0000000     0.2500000  0.2500000  0.2500000
                       0.0000000  0.0000000  0.0000000     0.2500000  0.2500000  0.2500000
                       0.0000000  0.0000000  0.0000000     0.2500000  0.2500000  0.2500000
                       0.0000000  0.0000000  0.0000000     0.2500000  0.2500000  0.2500000
                       0.0000000  0.0000000  0.0000000     0.2500000  0.2500000  0.2500000
                       0.0000000  0.0000000  0.0000000     0.2500000  0.2500000  0.2500000
                       0.0000000  0.0000000  0.0000000     0.2500000  0.2500000  0.2500000
                       0.0000000  0.0000000  0.0000000     0.2500000  0.2500000  0.2500000
                       0.0000000  0.0000000  0.0000000     0.2500000  0.2500000  0.2500000
                       0.0000000  0.0000000  0.0000000     0.2500000  0.2500000  0.2500000
                       0.0000000  0.0000000  0.0000000     0.2500000  0.2500000  0.2500000
                       0.0000000  0.0000000  0.0000000     0.2500000  0.2500000  0.2500000
                       0.0000000  0.0000000  0.0000000     0.2500000  0.2500000  0.2500000
                       0.0000000  0.0000000  0.0000000     0.2500000  0.2500000  0.2500000
                       0.0000000  0.0000000  0.0000000     0.2500000  0.2500000  0.2500000
                       0.0000000  0.0000000  0.0000000     0.2500000  0.2500000  0.2500000
                       0.0000000  0.0000000  0.0000000     0.2500000  0.2500000  0.2500000
           tolwfr      1.00000000E-12
           tsmear      5.00000000E-03 Hartree
            typat      1  1
           useylm           1
              wtk        0.00600    0.00600    0.00600    0.01200    0.00600    0.00600
                         0.01200    0.00600    0.01200    0.01200    0.00600    0.00600
                         0.01200    0.00600    0.01200    0.01200    0.00600    0.01200
                         0.01200    0.01200    0.00600    0.00600    0.01200    0.00600
                         0.01200    0.01200    0.00600    0.01200    0.01200    0.01200
                         0.00600    0.01200    0.01200    0.01200    0.01200    0.00600
                         0.00600    0.00600    0.01200    0.00600    0.01200    0.01200
                         0.01200    0.00600    0.01200    0.01200    0.01200    0.01200
                         0.00600    0.01200
                       outvars : Printing only first  50 k-points.
           xangst      0.0000000000E+00  0.0000000000E+00  0.0000000000E+00
                       8.9175000000E-01  8.9175000000E-01  8.9175000000E-01
            xcart      0.0000000000E+00  0.0000000000E+00  0.0000000000E+00
                       1.6851632790E+00  1.6851632790E+00  1.6851632790E+00
             xred      0.0000000000E+00  0.0000000000E+00  0.0000000000E+00
                       2.5000000000E-01  2.5000000000E-01  2.5000000000E-01
            znucl        6.00000
 
================================================================================
 
 chkinp: Checking input parameters for consistency.
 DATA TYPE INFORMATION: 
 REAL:      Data type name: REAL(DP) 
            Kind value:      8
            Precision:      15
            Smallest nonnegligible quantity relative to 1:  0.22204460E-15
            Smallest positive number:                       0.22250739-307
            Largest representable number:                   0.17976931+309
 INTEGER:   Data type name: INTEGER(default) 
            Kind value: 4
            Bit size:   32
            Largest representable number: 2147483647
 LOGICAL:   Data type name: LOGICAL 
            Kind value: 4
 CHARACTER: Data type name: CHARACTER             Kind value: 1

  ==== OpenMP parallelism is OFF ====
 
  ==== Using MPI-2 specifications ==== 
  MPI-IO support is ON
  xmpi_tag_ub ................   2147483647
  xmpi_bsize_ch ..............            1
  xmpi_bsize_int .............            4
  xmpi_bsize_sp ..............            4
  xmpi_bsize_dp ..............            8
  xmpi_bsize_spc .............            8
  xmpi_bsize_dpc .............           16
  xmpio_bsize_frm ............            4
  xmpi_address_kind ..........            8
  xmpi_offset_kind ...........            8
  MPI_WTICK ..................   1.000000000000000E-006
 
================================================================================
== DATASET  1 ==================================================================
-   nproc =    1
 
 
--- !COMMENT
src_file: m_xgScalapack.F90
src_line: 251
message: |
    xgScalapack in auto mode
...
 
 
 getdim_nloc : deduce lmnmax  =   8, lnmax  =   4,
                      lmnmaxso=   8, lnmaxso=   4.
 Exchange-correlation functional for the present dataset will be:
  LDA: Perdew-Wang 92 LSD fit to Ceperley-Alder data - ixc=7
 Citation for XC functional:
  J.P.Perdew and Y.Wang, PRB 45, 13244 (1992)
 
 Unit cell volume ucvol=  7.6567760E+01 bohr^3
 Angles (23,13,12)=  6.00000000E+01  6.00000000E+01  6.00000000E+01 degrees
 
 Coarse grid specifications (used for wave-functions):
 
 getcut: wavevector=  0.0000  0.0000  0.0000  ngfft=  16  16  16
         ecut(hartree)=     12.000   => boxcut(ratio)=   2.15267
 
 Fine grid specifications (used for densities):
 
 getcut: wavevector=  0.0000  0.0000  0.0000  ngfft=  24  24  24
         ecut(hartree)=     24.000   => boxcut(ratio)=   2.28325
 
 getcut : COMMENT -
  Note that boxcut > 2.2 ; recall that boxcut=Gcut(box)/Gcut(sphere) = 2
  is sufficient for exact treatment of convolution.
  Such a large boxcut is a waste : you could raise ecut
  e.g. ecut=   31.279390 Hartrees makes boxcut=2
 
- pspini: atom type   1  psp file is ../../../Psps_for_tests/6c.lda.atompaw
- pspatm: opening atomic psp file    ../../../Psps_for_tests/6c.lda.atompaw
- Paw atomic data for element C - Generated by AtomPAW + AtomPAW2Abinit v3.2.1
-  6.00000   4.00000  20080326                znucl, zion, pspdat
    7    7    1    0       505   0.00000      pspcod,pspxc,lmax,lloc,mmax,r2well
 Pseudopotential format is: paw4
 basis_size (lnmax)=  4 (lmn_size=  8), orbitals=   0   0   1   1
 Spheres core radius: rc_sph= 1.50000000
 4 radial meshes are used:
  - mesh 1: r(i)=AA*[exp(BB*(i-1))-1], size= 505 , AA= 0.21824E-02 BB= 0.13095E-01
  - mesh 2: r(i)=AA*[exp(BB*(i-1))-1], size= 500 , AA= 0.21824E-02 BB= 0.13095E-01
  - mesh 3: r(i)=AA*[exp(BB*(i-1))-1], size= 530 , AA= 0.21824E-02 BB= 0.13095E-01
  - mesh 4: r(i)=AA*[exp(BB*(i-1))-1], size= 644 , AA= 0.21824E-02 BB= 0.13095E-01
 Shapefunction is SIN type: shapef(r)=[sin(pi*r/rshp)/(pi*r/rshp)]**2
 Radius for shape functions = sphere core radius
 Radial grid used for partial waves is grid 1
 Radial grid used for projectors is grid  2
 Radial grid used for (t)core density is grid 3
 Radial grid used for Vloc is grid 4
 Radial grid used for pseudo valence density is grid 4
 Compensation charge density is taken into account in XC energy/potential
 beta integral value:      -0.301106E+01
 pspatm: atomic psp has been read  and splines computed
 
   4.14245303E+01                                ecore*ucvol(ha*bohr**3)
 ==== Info on pseudopotentials ====
  PAW calculation
  Number of pseudopotentials ..    1
  Number of types of atoms   ..    1
  Scalar calculation (no spin-orbit term)
  Nonlocal part applied using real spherical harmonics
  Max number of non-local projectors over l and type   2
  Highest angular momentum +1 .......   2
  Max number of (l,n)   components ..   4
  Max number of (l,m,n) components ..   8
 
 Pseudo-Core Charge Info: 
   Number of radial points for pseudo-core charge ..    1
   XC core-correction treatment (optnlxccc) ........    1
   Radius for pseudo-core charge for each type ..... 
 
  - Atom type    1 has pseudo-core radius ..  2.2228
 
 Info on the Q-grid used for form factors in spline form: 
   Number of q-points for radial functions ffspl ..   3001
   Number of q-points for vlspl ...................   3001
   vloc is computed in Reciprocal Space
 
  XC functional for type 1 is 7
 
 wfconv:     6 bands initialized randomly with npw=   158, for ikpt=     1
 wfconv:     6 bands initialized randomly with npw=   154, for ikpt=     2
 wfconv:     6 bands initialized randomly with npw=   157, for ikpt=     3
 wfconv:     6 bands initialized randomly with npw=   156, for ikpt=     4
 wfconv:     6 bands initialized randomly with npw=   152, for ikpt=     5
 wfconv:     6 bands initialized randomly with npw=   153, for ikpt=     6
 wfconv:     6 bands initialized randomly with npw=   153, for ikpt=     7
 wfconv:     6 bands initialized randomly with npw=   157, for ikpt=     8
 wfconv:     6 bands initialized randomly with npw=   153, for ikpt=     9
 wfconv:     6 bands initialized randomly with npw=   153, for ikpt=    10
 wfconv:     6 bands initialized randomly with npw=   149, for ikpt=    11
 wfconv:     6 bands initialized randomly with npw=   150, for ikpt=    12
 wfconv:     6 bands initialized randomly with npw=   151, for ikpt=    13
 wfconv:     6 bands initialized randomly with npw=   152, for ikpt=    14
 wfconv:     6 bands initialized randomly with npw=   153, for ikpt=    15
 wfconv:     6 bands initialized randomly with npw=   151, for ikpt=    16
 wfconv:     6 bands initialized randomly with npw=   152, for ikpt=    17
 wfconv:     6 bands initialized randomly with npw=   153, for ikpt=    18
 wfconv:     6 bands initialized randomly with npw=   151, for ikpt=    19
 wfconv:     6 bands initialized randomly with npw=   149, for ikpt=    20
 wfconv:     6 bands initialized randomly with npw=   156, for ikpt=    21
 wfconv:     6 bands initialized randomly with npw=   151, for ikpt=    22
 wfconv:     6 bands initialized randomly with npw=   153, for ikpt=    23
 wfconv:     6 bands initialized randomly with npw=   148, for ikpt=    24
 wfconv:     6 bands initialized randomly with npw=   150, for ikpt=    25
 wfconv:     6 bands initialized randomly with npw=   153, for ikpt=    26
 wfconv:     6 bands initialized randomly with npw=   152, for ikpt=    27
 wfconv:     6 bands initialized randomly with npw=   150, for ikpt=    28
 wfconv:     6 bands initialized randomly with npw=   150, for ikpt=    29
 wfconv:     6 bands initialized randomly with npw=   151, for ikpt=    30
 wfconv:     6 bands initialized randomly with npw=   151, for ikpt=    31
 wfconv:     6 bands initialized randomly with npw=   150, for ikpt=    32
 wfconv:     6 bands initialized randomly with npw=   150, for ikpt=    33
 wfconv:     6 bands initialized randomly with npw=   148, for ikpt=    34
 wfconv:     6 bands initialized randomly with npw=   151, for ikpt=    35
 wfconv:     6 bands initialized randomly with npw=   149, for ikpt=    36
 wfconv:     6 bands initialized randomly with npw=   156, for ikpt=    37
 wfconv:     6 bands initialized randomly with npw=   155, for ikpt=    38
 wfconv:     6 bands initialized randomly with npw=   155, for ikpt=    39
 wfconv:     6 bands initialized randomly with npw=   149, for ikpt=    40
 wfconv:     6 bands initialized randomly with npw=   152, for ikpt=    41
 wfconv:     6 bands initialized randomly with npw=   154, for ikpt=    42
 wfconv:     6 bands initialized randomly with npw=   155, for ikpt=    43
 wfconv:     6 bands initialized randomly with npw=   149, for ikpt=    44
 wfconv:     6 bands initialized randomly with npw=   150, for ikpt=    45
 wfconv:     6 bands initialized randomly with npw=   151, for ikpt=    46
 wfconv:     6 bands initialized randomly with npw=   153, for ikpt=    47
 wfconv:     6 bands initialized randomly with npw=   153, for ikpt=    48
 wfconv:     6 bands initialized randomly with npw=   149, for ikpt=    49
 wfconv:     6 bands initialized randomly with npw=   149, for ikpt=    50
_setup2: Arith. and geom. avg. npw (full set) are     151.842     151.827
 initro: for itypat=  1, take pseudo charge density from pp file
 
================================================================================
 FFT (fine) grid used in SCF cycle:
 
 getcut: wavevector=  0.0000  0.0000  0.0000  ngfft=  24  24  24
         ecut(hartree)=     24.000   => boxcut(ratio)=   2.28325
 
 getcut : COMMENT -
  Note that boxcut > 2.2 ; recall that boxcut=Gcut(box)/Gcut(sphere) = 2
  is sufficient for exact treatment of convolution.
  Such a large boxcut is a waste : you could raise ecut
  e.g. ecut=   31.279390 Hartrees makes boxcut=2
 
 
--- !WARNING
src_file: m_paw_tools.F90
src_line: 217
message: |
    PAW COMPENSATION DENSITIES ARE OVERLAPPING !!!!
       There are     4 pairs of overlapping atoms.
       The maximum overlap percentage is obtained for the atoms   1 and   2.
        | Distance between atoms   1 and   2 is  :   2.91879
        | PAW radius of the sphere around atom   1 is:   1.50000
        | PAW radius of the sphere around atom   2 is:   1.50000
        | This leads to a (voluminal) overlap ratio of  0.11 %
    THIS IS DANGEROUS !, as PAW formalism assumes non-overlapping compensation densities.
...
 
       Overlap ratio seems to be acceptable (less than value
       of "pawovlp" input parameter): execution will continue.
       But be aware that results might be approximate,
       and even inaccurate (depending on your physical system) !
 
 average electrostatic smooth potential [Ha] , [eV]      0.000000        0.000000
 
 ****** Psp strength Dij in Ha (atom      1) *****
   0.59558  -1.67591   0.00000   0.00000  -0.00000  -0.00000  -0.00000   0.00000
  -1.67591   4.22815  -0.00000  -0.00000   0.00000   0.00000   0.00000  -0.00000
   0.00000  -0.00000  -0.04628   0.00000  -0.00000  -0.18875  -0.00000   0.00000
   0.00000  -0.00000   0.00000  -0.04628   0.00000  -0.00000  -0.18875  -0.00000
  -0.00000   0.00000  -0.00000   0.00000  -0.04628   0.00000  -0.00000  -0.18875
  -0.00000   0.00000  -0.18875  -0.00000   0.00000   2.80878   0.00000  -0.00000
  -0.00000   0.00000  -0.00000  -0.18875  -0.00000   0.00000   2.80878   0.00000
   0.00000  -0.00000   0.00000  -0.00000  -0.18875  -0.00000   0.00000   2.80878
 
 ****** Psp strength Dij in Ha (atom      2) *****
   0.59558  -1.67591   0.00000   0.00000   0.00000  -0.00000  -0.00000  -0.00000
  -1.67591   4.22815  -0.00000  -0.00000  -0.00000   0.00000   0.00000   0.00000
   0.00000  -0.00000  -0.04628   0.00000   0.00000  -0.18875  -0.00000  -0.00000
   0.00000  -0.00000   0.00000  -0.04628   0.00000  -0.00000  -0.18875  -0.00000
   0.00000  -0.00000   0.00000   0.00000  -0.04628  -0.00000  -0.00000  -0.18875
  -0.00000   0.00000  -0.18875  -0.00000  -0.00000   2.80878   0.00000   0.00000
  -0.00000   0.00000  -0.00000  -0.18875  -0.00000   0.00000   2.80878   0.00000
  -0.00000   0.00000  -0.00000  -0.00000  -0.18875   0.00000   0.00000   2.80878
 
 
 ITER STEP NUMBER     1
 vtorho : nnsclo_now=2, note that nnsclo,dbl_nnsclo,istep=0 0 1
 newocc: new Fermi energy is       0.411832 , with nelect=      8.000000
  Number of bissection calls =   3
 newocc : computed new occ. numbers for occopt= 7 , spin-unpolarized case.
 2.000 2.000 2.000 2.000 0.000 0.000
 2.000 2.000 2.000 2.000 0.000 0.000
 2.000 2.000 2.000 2.000 0.000 0.000
 2.000 2.000 2.000 2.000 0.000 0.000
 2.000 2.000 2.000 2.000 0.000 0.000
 2.000 2.000 2.000 2.000 0.000 0.000
 2.000 2.000 2.000 2.000 0.000 0.000
 2.000 2.000 2.000 2.000 0.000 0.000
 2.000 2.000 2.000 2.000 0.000 0.000
 2.000 2.000 2.000 2.000 0.000 0.000
 2.000 2.000 2.000 2.000 0.000 0.000
 2.000 2.000 2.000 2.000 0.000 0.000
 2.000 2.000 2.000 2.000 0.000 0.000
 2.000 2.000 2.000 2.000 0.000 0.000
 2.000 2.000 2.000 2.000 0.000 0.000
 2.000 2.000 2.000 2.000 0.000 0.000
 2.000 2.000 2.000 2.000 0.000 0.000
 2.000 2.000 2.000 2.000 0.000 0.000
 2.000 2.000 2.000 2.000 0.000 0.000
 2.000 2.000 2.000 2.000 0.000 0.000
 2.000 2.000 2.000 2.000 0.000 0.000
 2.000 2.000 2.000 2.000 0.000 0.000
 2.000 2.000 2.000 2.000 0.000 0.000
 2.000 2.000 2.000 2.000 0.000 0.000
 2.000 2.000 2.000 2.000 0.000 0.000
 2.000 2.000 2.000 2.000 0.000 0.000
 2.000 2.000 2.000 2.000 0.000 0.000
 2.000 2.000 2.000 2.000 0.000 0.000
 2.000 2.000 2.000 2.000 0.000 0.000
 2.000 2.000 2.000 2.000 0.000 0.000
 2.000 2.000 2.000 2.000 0.000 0.000
 2.000 2.000 2.000 2.000 0.000 0.000
 2.000 2.000 2.000 2.000 0.000 0.000
 2.000 2.000 2.000 2.000 0.000 0.000
 2.000 2.000 2.000 2.000 0.000 0.000
 2.000 2.000 2.000 2.000 0.000 0.000
 2.000 2.000 2.000 2.000 0.000 0.000
 2.000 2.000 2.000 2.000 0.000 0.000
 2.000 2.000 2.000 2.000 0.000 0.000
 2.000 2.000 2.000 2.000 0.000 0.000
 2.000 2.000 2.000 2.000 0.000 0.000
 2.000 2.000 2.000 2.000 0.000 0.000
 2.000 2.000 2.000 2.000 0.000 0.000
 2.000 2.000 2.000 2.000 0.000 0.000
 2.000 2.000 2.000 2.000 0.000 0.000
 2.000 2.000 2.000 2.000 0.000 0.000
 2.000 2.000 2.000 2.000 0.000 0.000
 2.000 2.000 2.000 2.000 0.000 0.000
 2.000 2.000 2.000 2.000 0.000 0.000
 2.000 2.000 2.000 2.000 0.000 0.000
 newocc: prtvol=0, stop printing more k-point information
mkrho: echo density (plane-wave part only)
 Total charge density [el/Bohr^3]
      Maximum=    2.5145E-01  at reduced coord.    0.0625    0.1250    0.7500
      Minimum=    1.1574E-02  at reduced coord.    0.5000    0.5000    0.5000
   Integrated=    7.5451E+00
 
 *********** RHOIJ (atom   1) **********
   1.64691   0.04579   0.00000   0.00000   0.00000   0.00000   0.00000   0.00000
   0.04579   0.00257   0.00000   0.00000   0.00000   0.00000   0.00000   0.00000
   0.00000   0.00000   1.43069   0.00000   0.00000   0.05382   0.00000   0.00000
   0.00000   0.00000   0.00000   1.43069   0.00000   0.00000   0.05382   0.00000
   0.00000   0.00000   0.00000   0.00000   1.43069   0.00000   0.00000   0.05382
   0.00000   0.00000   0.05382   0.00000   0.00000   0.00264   0.00000   0.00000
   0.00000   0.00000   0.00000   0.05382   0.00000   0.00000   0.00264   0.00000
   0.00000   0.00000   0.00000   0.00000   0.05382   0.00000   0.00000   0.00264
 
 *********** RHOIJ (atom   2) **********
   1.64691   0.04579   0.00000   0.00000   0.00000   0.00000   0.00000   0.00000
   0.04579   0.00257   0.00000   0.00000   0.00000   0.00000   0.00000   0.00000
   0.00000   0.00000   1.43069   0.00000   0.00000   0.05382   0.00000   0.00000
   0.00000   0.00000   0.00000   1.43069   0.00000   0.00000   0.05382   0.00000
   0.00000   0.00000   0.00000   0.00000   1.43069   0.00000   0.00000   0.05382
   0.00000   0.00000   0.05382   0.00000   0.00000   0.00264   0.00000   0.00000
   0.00000   0.00000   0.00000   0.05382   0.00000   0.00000   0.00264   0.00000
   0.00000   0.00000   0.00000   0.00000   0.05382   0.00000   0.00000   0.00264
 
 Total charge density [el/Bohr^3]
      Maximum=    2.8718E-01  at reduced coord.    0.0417    0.0833    0.8333
      Minimum=    1.1574E-02  at reduced coord.    0.5000    0.5000    0.5000
   Integrated=    8.0000E+00
 ETOT  1  -11.535427348053    -1.154E+01 2.495E-01 5.816E+00
 scprqt: <Vxc>= -5.0620718E-01 hartree
 
Simple mixing update:
  residual square of the potential :  1.366482555163386E-004
  rhotov : is_hybrid_ncpp= F
  rhotov : n3xccc=       13824
 scfcv_core: previous iteration took 00 [s]
 average electrostatic smooth potential [Ha] , [eV]      0.000000        0.000000
 
 ****** Psp strength Dij in Ha (atom      1) *****
   0.59194  -1.65666   0.00000   0.00000   0.00000  -0.00000  -0.00000  -0.00000
  -1.65666   4.14703  -0.00000  -0.00000  -0.00000   0.00000   0.00000   0.00000
   0.00000  -0.00000  -0.03705  -0.00000  -0.00000  -0.21991   0.00000   0.00000
   0.00000  -0.00000  -0.00000  -0.03705  -0.00000   0.00000  -0.21991   0.00000
   0.00000  -0.00000  -0.00000  -0.00000  -0.03705   0.00000   0.00000  -0.21991
  -0.00000   0.00000  -0.21991   0.00000   0.00000   2.91319  -0.00000  -0.00000
  -0.00000   0.00000   0.00000  -0.21991   0.00000  -0.00000   2.91319  -0.00000
  -0.00000   0.00000   0.00000   0.00000  -0.21991  -0.00000  -0.00000   2.91319
 
 ****** Psp strength Dij in Ha (atom      2) *****
   0.59194  -1.65666  -0.00000  -0.00000  -0.00000   0.00000   0.00000   0.00000
  -1.65666   4.14703   0.00000   0.00000   0.00000  -0.00000  -0.00000  -0.00000
  -0.00000   0.00000  -0.03705  -0.00000  -0.00000  -0.21991   0.00000   0.00000
  -0.00000   0.00000  -0.00000  -0.03705  -0.00000   0.00000  -0.21991   0.00000
  -0.00000   0.00000  -0.00000  -0.00000  -0.03705   0.00000   0.00000  -0.21991
   0.00000  -0.00000  -0.21991   0.00000   0.00000   2.91319  -0.00000  -0.00000
   0.00000  -0.00000   0.00000  -0.21991   0.00000  -0.00000   2.91319  -0.00000
   0.00000  -0.00000   0.00000   0.00000  -0.21991  -0.00000  -0.00000   2.91319
 
 
 ITER STEP NUMBER     2
 vtorho : nnsclo_now=2, note that nnsclo,dbl_nnsclo,istep=0 0 2
 newocc: new Fermi energy is       0.485784 , with nelect=      8.000000
  Number of bissection calls =   4
 newocc : computed new occ. numbers for occopt= 7 , spin-unpolarized case.
 2.000 2.000 2.000 2.000 0.000 0.000
 2.000 2.000 2.000 2.000 0.000 0.000
 2.000 2.000 2.000 2.000 0.000 0.000
 2.000 2.000 2.000 2.000 0.000 0.000
 2.000 2.000 2.000 2.000 0.000 0.000
 2.000 2.000 2.000 2.000 0.000 0.000
 2.000 2.000 2.000 2.000 0.000 0.000
 2.000 2.000 2.000 2.000 0.000 0.000
 2.000 2.000 2.000 2.000 0.000 0.000
 2.000 2.000 2.000 2.000 0.000 0.000
 2.000 2.000 2.000 2.000 0.000 0.000
 2.000 2.000 2.000 2.000 0.000 0.000
 2.000 2.000 2.000 2.000 0.000 0.000
 2.000 2.000 2.000 2.000 0.000 0.000
 2.000 2.000 2.000 2.000 0.000 0.000
 2.000 2.000 2.000 2.000 0.000 0.000
 2.000 2.000 2.000 2.000 0.000 0.000
 2.000 2.000 2.000 2.000 0.000 0.000
 2.000 2.000 2.000 2.000 0.000 0.000
 2.000 2.000 2.000 2.000 0.000 0.000
 2.000 2.000 2.000 2.000 0.000 0.000
 2.000 2.000 2.000 2.000 0.000 0.000
 2.000 2.000 2.000 2.000 0.000 0.000
 2.000 2.000 2.000 2.000 0.000 0.000
 2.000 2.000 2.000 2.000 0.000 0.000
 2.000 2.000 2.000 2.000 0.000 0.000
 2.000 2.000 2.000 2.000 0.000 0.000
 2.000 2.000 2.000 2.000 0.000 0.000
 2.000 2.000 2.000 2.000 0.000 0.000
 2.000 2.000 2.000 2.000 0.000 0.000
 2.000 2.000 2.000 2.000 0.000 0.000
 2.000 2.000 2.000 2.000 0.000 0.000
 2.000 2.000 2.000 2.000 0.000 0.000
 2.000 2.000 2.000 2.000 0.000 0.000
 2.000 2.000 2.000 2.000 0.000 0.000
 2.000 2.000 2.000 2.000 0.000 0.000
 2.000 2.000 2.000 2.000 0.000 0.000
 2.000 2.000 2.000 2.000 0.000 0.000
 2.000 2.000 2.000 2.000 0.000 0.000
 2.000 2.000 2.000 2.000 0.000 0.000
 2.000 2.000 2.000 2.000 0.000 0.000
 2.000 2.000 2.000 2.000 0.000 0.000
 2.000 2.000 2.000 2.000 0.000 0.000
 2.000 2.000 2.000 2.000 0.000 0.000
 2.000 2.000 2.000 2.000 0.000 0.000
 2.000 2.000 2.000 2.000 0.000 0.000
 2.000 2.000 2.000 2.000 0.000 0.000
 2.000 2.000 2.000 2.000 0.000 0.000
 2.000 2.000 2.000 2.000 0.000 0.000
 2.000 2.000 2.000 2.000 0.000 0.000
 newocc: prtvol=0, stop printing more k-point information
mkrho: echo density (plane-wave part only)
 Total charge density [el/Bohr^3]
      Maximum=    2.4559E-01  at reduced coord.    0.0625    0.1250    0.7500
      Minimum=    1.3134E-02  at reduced coord.    0.5000    0.5000    0.5000
   Integrated=    7.5818E+00
 
 *********** RHOIJ (atom   1) **********
   1.62343   0.04343   0.00000   0.00000   0.00000   0.00000   0.00000   0.00000
   0.04343   0.00161   0.00000   0.00000   0.00000   0.00000   0.00000   0.00000
   0.00000   0.00000   1.42306   0.00000   0.00000   0.06202   0.00000   0.00000
   0.00000   0.00000   0.00000   1.42306   0.00000   0.00000   0.06202   0.00000
   0.00000   0.00000   0.00000   0.00000   1.42306   0.00000   0.00000   0.06202
   0.00000   0.00000   0.06202   0.00000   0.00000   0.00322   0.00000   0.00000
   0.00000   0.00000   0.00000   0.06202   0.00000   0.00000   0.00322   0.00000
   0.00000   0.00000   0.00000   0.00000   0.06202   0.00000   0.00000   0.00322
 
 *********** RHOIJ (atom   2) **********
   1.62343   0.04343   0.00000   0.00000   0.00000   0.00000   0.00000   0.00000
   0.04343   0.00161   0.00000   0.00000   0.00000   0.00000   0.00000   0.00000
   0.00000   0.00000   1.42306   0.00000   0.00000   0.06202   0.00000   0.00000
   0.00000   0.00000   0.00000   1.42306   0.00000   0.00000   0.06202   0.00000
   0.00000   0.00000   0.00000   0.00000   1.42306   0.00000   0.00000   0.06202
   0.00000   0.00000   0.06202   0.00000   0.00000   0.00322   0.00000   0.00000
   0.00000   0.00000   0.00000   0.06202   0.00000   0.00000   0.00322   0.00000
   0.00000   0.00000   0.00000   0.00000   0.06202   0.00000   0.00000   0.00322
 
 Total charge density [el/Bohr^3]
      Maximum=    2.7666E-01  at reduced coord.    0.0417    0.0833    0.8333
      Minimum=    1.3134E-02  at reduced coord.    0.5000    0.5000    0.5000
   Integrated=    8.0000E+00
 ETOT  2  -11.527048837133     8.379E-03 9.210E-06 6.158E-01
 scprqt: <Vxc>= -4.9956448E-01 hartree
 
 Pulay update with  1 previous iterations:
 mixing of old trial potential : alpha(m:m-4)=   1.42     -0.420
  rhotov : is_hybrid_ncpp= F
  rhotov : n3xccc=       13824
 scfcv_core: previous iteration took 00 [s]
 average electrostatic smooth potential [Ha] , [eV]      0.000000        0.000000
 
 ****** Psp strength Dij in Ha (atom      1) *****
   0.59012  -1.64871  -0.00000  -0.00000  -0.00000   0.00000   0.00000   0.00000
  -1.64871   4.11585   0.00000   0.00000   0.00000  -0.00000  -0.00000  -0.00000
  -0.00000   0.00000  -0.03400   0.00000   0.00000  -0.23035  -0.00000  -0.00000
  -0.00000   0.00000   0.00000  -0.03400   0.00000  -0.00000  -0.23035  -0.00000
  -0.00000   0.00000   0.00000   0.00000  -0.03400  -0.00000  -0.00000  -0.23035
   0.00000  -0.00000  -0.23035  -0.00000  -0.00000   2.94707   0.00000   0.00000
   0.00000  -0.00000  -0.00000  -0.23035  -0.00000   0.00000   2.94707   0.00000
   0.00000  -0.00000  -0.00000  -0.00000  -0.23035   0.00000   0.00000   2.94707
 
 ****** Psp strength Dij in Ha (atom      2) *****
   0.59012  -1.64871   0.00000   0.00000   0.00000  -0.00000  -0.00000  -0.00000
  -1.64871   4.11585  -0.00000  -0.00000  -0.00000   0.00000   0.00000   0.00000
   0.00000  -0.00000  -0.03400   0.00000   0.00000  -0.23035  -0.00000  -0.00000
   0.00000  -0.00000   0.00000  -0.03400   0.00000  -0.00000  -0.23035  -0.00000
   0.00000  -0.00000   0.00000   0.00000  -0.03400  -0.00000  -0.00000  -0.23035
  -0.00000   0.00000  -0.23035  -0.00000  -0.00000   2.94707   0.00000   0.00000
  -0.00000   0.00000  -0.00000  -0.23035  -0.00000   0.00000   2.94707   0.00000
  -0.00000   0.00000  -0.00000  -0.00000  -0.23035   0.00000   0.00000   2.94707
 
 
 ITER STEP NUMBER     3
 vtorho : nnsclo_now=1, note that nnsclo,dbl_nnsclo,istep=0 0 3
 newocc: new Fermi energy is       0.494830 , with nelect=      8.000000
  Number of bissection calls =   4
 newocc : computed new occ. numbers for occopt= 7 , spin-unpolarized case.
 2.000 2.000 2.000 2.000 0.000 0.000
 2.000 2.000 2.000 2.000 0.000 0.000
 2.000 2.000 2.000 2.000 0.000 0.000
 2.000 2.000 2.000 2.000 0.000 0.000
 2.000 2.000 2.000 2.000 0.000 0.000
 2.000 2.000 2.000 2.000 0.000 0.000
 2.000 2.000 2.000 2.000 0.000 0.000
 2.000 2.000 2.000 2.000 0.000 0.000
 2.000 2.000 2.000 2.000 0.000 0.000
 2.000 2.000 2.000 2.000 0.000 0.000
 2.000 2.000 2.000 2.000 0.000 0.000
 2.000 2.000 2.000 2.000 0.000 0.000
 2.000 2.000 2.000 2.000 0.000 0.000
 2.000 2.000 2.000 2.000 0.000 0.000
 2.000 2.000 2.000 2.000 0.000 0.000
 2.000 2.000 2.000 2.000 0.000 0.000
 2.000 2.000 2.000 2.000 0.000 0.000
 2.000 2.000 2.000 2.000 0.000 0.000
 2.000 2.000 2.000 2.000 0.000 0.000
 2.000 2.000 2.000 2.000 0.000 0.000
 2.000 2.000 2.000 2.000 0.000 0.000
 2.000 2.000 2.000 2.000 0.000 0.000
 2.000 2.000 2.000 2.000 0.000 0.000
 2.000 2.000 2.000 2.000 0.000 0.000
 2.000 2.000 2.000 2.000 0.000 0.000
 2.000 2.000 2.000 2.000 0.000 0.000
 2.000 2.000 2.000 2.000 0.000 0.000
 2.000 2.000 2.000 2.000 0.000 0.000
 2.000 2.000 2.000 2.000 0.000 0.000
 2.000 2.000 2.000 2.000 0.000 0.000
 2.000 2.000 2.000 2.000 0.000 0.000
 2.000 2.000 2.000 2.000 0.000 0.000
 2.000 2.000 2.000 2.000 0.000 0.000
 2.000 2.000 2.000 2.000 0.000 0.000
 2.000 2.000 2.000 2.000 0.000 0.000
 2.000 2.000 2.000 2.000 0.000 0.000
 2.000 2.000 2.000 2.000 0.000 0.000
 2.000 2.000 2.000 2.000 0.000 0.000
 2.000 2.000 2.000 2.000 0.000 0.000
 2.000 2.000 2.000 2.000 0.000 0.000
 2.000 2.000 2.000 2.000 0.000 0.000
 2.000 2.000 2.000 2.000 0.000 0.000
 2.000 2.000 2.000 2.000 0.000 0.000
 2.000 2.000 2.000 2.000 0.000 0.000
 2.000 2.000 2.000 2.000 0.000 0.000
 2.000 2.000 2.000 2.000 0.000 0.000
 2.000 2.000 2.000 2.000 0.000 0.000
 2.000 2.000 2.000 2.000 0.000 0.000
 2.000 2.000 2.000 2.000 0.000 0.000
 2.000 2.000 2.000 2.000 0.000 0.000
 newocc: prtvol=0, stop printing more k-point information
mkrho: echo density (plane-wave part only)
 Total charge density [el/Bohr^3]
      Maximum=    2.4250E-01  at reduced coord.    0.0625    0.1250    0.7500
      Minimum=    1.3844E-02  at reduced coord.    0.5000    0.5000    0.5000
   Integrated=    7.5920E+00
 
 *********** RHOIJ (atom   1) **********
   1.61455   0.04393   0.00000   0.00000   0.00000   0.00000   0.00000   0.00000
   0.04393   0.00165   0.00000   0.00000   0.00000   0.00000   0.00000   0.00000
   0.00000   0.00000   1.41607   0.00000   0.00000   0.06392   0.00000   0.00000
   0.00000   0.00000   0.00000   1.41607   0.00000   0.00000   0.06392   0.00000
   0.00000   0.00000   0.00000   0.00000   1.41607   0.00000   0.00000   0.06392
   0.00000   0.00000   0.06392   0.00000   0.00000   0.00341   0.00000   0.00000
   0.00000   0.00000   0.00000   0.06392   0.00000   0.00000   0.00341   0.00000
   0.00000   0.00000   0.00000   0.00000   0.06392   0.00000   0.00000   0.00341
 
 *********** RHOIJ (atom   2) **********
   1.61455   0.04393   0.00000   0.00000   0.00000   0.00000   0.00000   0.00000
   0.04393   0.00165   0.00000   0.00000   0.00000   0.00000   0.00000   0.00000
   0.00000   0.00000   1.41607   0.00000   0.00000   0.06392   0.00000   0.00000
   0.00000   0.00000   0.00000   1.41607   0.00000   0.00000   0.06392   0.00000
   0.00000   0.00000   0.00000   0.00000   1.41607   0.00000   0.00000   0.06392
   0.00000   0.00000   0.06392   0.00000   0.00000   0.00341   0.00000   0.00000
   0.00000   0.00000   0.00000   0.06392   0.00000   0.00000   0.00341   0.00000
   0.00000   0.00000   0.00000   0.00000   0.06392   0.00000   0.00000   0.00341
 
 Total charge density [el/Bohr^3]
      Maximum=    2.7269E-01  at reduced coord.    0.0417    0.0833    0.8333
      Minimum=    1.3844E-02  at reduced coord.    0.5000    0.5000    0.5000
   Integrated=    8.0000E+00
 ETOT  3  -11.524579462510     2.469E-03 4.475E-05 9.825E-03
 scprqt: <Vxc>= -4.9556771E-01 hartree
 
 Pulay update with  2 previous iterations:
 mixing of old trial potential : alpha(m:m-4)=   1.41     -0.594      0.184
  rhotov : is_hybrid_ncpp= F
  rhotov : n3xccc=       13824
 scfcv_core: previous iteration took 00 [s]
 average electrostatic smooth potential [Ha] , [eV]      0.000000        0.000000
 
 ****** Psp strength Dij in Ha (atom      1) *****
   0.59009  -1.64894  -0.00000  -0.00000  -0.00000   0.00000   0.00000   0.00000
  -1.64894   4.11743   0.00000   0.00000   0.00000  -0.00000  -0.00000  -0.00000
  -0.00000   0.00000  -0.03428   0.00000   0.00000  -0.22935  -0.00000  -0.00000
  -0.00000   0.00000   0.00000  -0.03428   0.00000  -0.00000  -0.22935  -0.00000
  -0.00000   0.00000   0.00000   0.00000  -0.03428  -0.00000  -0.00000  -0.22935
   0.00000  -0.00000  -0.22935  -0.00000  -0.00000   2.94331   0.00000   0.00000
   0.00000  -0.00000  -0.00000  -0.22935  -0.00000   0.00000   2.94331   0.00000
   0.00000  -0.00000  -0.00000  -0.00000  -0.22935   0.00000   0.00000   2.94331
 
 ****** Psp strength Dij in Ha (atom      2) *****
   0.59009  -1.64894   0.00000   0.00000   0.00000  -0.00000  -0.00000  -0.00000
  -1.64894   4.11743  -0.00000  -0.00000  -0.00000   0.00000   0.00000   0.00000
   0.00000  -0.00000  -0.03428   0.00000   0.00000  -0.22935  -0.00000  -0.00000
   0.00000  -0.00000   0.00000  -0.03428   0.00000  -0.00000  -0.22935  -0.00000
   0.00000  -0.00000   0.00000   0.00000  -0.03428  -0.00000  -0.00000  -0.22935
  -0.00000   0.00000  -0.22935  -0.00000  -0.00000   2.94331   0.00000   0.00000
  -0.00000   0.00000  -0.00000  -0.22935  -0.00000   0.00000   2.94331   0.00000
  -0.00000   0.00000  -0.00000  -0.00000  -0.22935   0.00000   0.00000   2.94331
 
 
 ITER STEP NUMBER     4
 vtorho : nnsclo_now=1, note that nnsclo,dbl_nnsclo,istep=0 0 4
 newocc: new Fermi energy is       0.494315 , with nelect=      8.000000
  Number of bissection calls =   4
 newocc : computed new occ. numbers for occopt= 7 , spin-unpolarized case.
 2.000 2.000 2.000 2.000 0.000 0.000
 2.000 2.000 2.000 2.000 0.000 0.000
 2.000 2.000 2.000 2.000 0.000 0.000
 2.000 2.000 2.000 2.000 0.000 0.000
 2.000 2.000 2.000 2.000 0.000 0.000
 2.000 2.000 2.000 2.000 0.000 0.000
 2.000 2.000 2.000 2.000 0.000 0.000
 2.000 2.000 2.000 2.000 0.000 0.000
 2.000 2.000 2.000 2.000 0.000 0.000
 2.000 2.000 2.000 2.000 0.000 0.000
 2.000 2.000 2.000 2.000 0.000 0.000
 2.000 2.000 2.000 2.000 0.000 0.000
 2.000 2.000 2.000 2.000 0.000 0.000
 2.000 2.000 2.000 2.000 0.000 0.000
 2.000 2.000 2.000 2.000 0.000 0.000
 2.000 2.000 2.000 2.000 0.000 0.000
 2.000 2.000 2.000 2.000 0.000 0.000
 2.000 2.000 2.000 2.000 0.000 0.000
 2.000 2.000 2.000 2.000 0.000 0.000
 2.000 2.000 2.000 2.000 0.000 0.000
 2.000 2.000 2.000 2.000 0.000 0.000
 2.000 2.000 2.000 2.000 0.000 0.000
 2.000 2.000 2.000 2.000 0.000 0.000
 2.000 2.000 2.000 2.000 0.000 0.000
 2.000 2.000 2.000 2.000 0.000 0.000
 2.000 2.000 2.000 2.000 0.000 0.000
 2.000 2.000 2.000 2.000 0.000 0.000
 2.000 2.000 2.000 2.000 0.000 0.000
 2.000 2.000 2.000 2.000 0.000 0.000
 2.000 2.000 2.000 2.000 0.000 0.000
 2.000 2.000 2.000 2.000 0.000 0.000
 2.000 2.000 2.000 2.000 0.000 0.000
 2.000 2.000 2.000 2.000 0.000 0.000
 2.000 2.000 2.000 2.000 0.000 0.000
 2.000 2.000 2.000 2.000 0.000 0.000
 2.000 2.000 2.000 2.000 0.000 0.000
 2.000 2.000 2.000 2.000 0.000 0.000
 2.000 2.000 2.000 2.000 0.000 0.000
 2.000 2.000 2.000 2.000 0.000 0.000
 2.000 2.000 2.000 2.000 0.000 0.000
 2.000 2.000 2.000 2.000 0.000 0.000
 2.000 2.000 2.000 2.000 0.000 0.000
 2.000 2.000 2.000 2.000 0.000 0.000
 2.000 2.000 2.000 2.000 0.000 0.000
 2.000 2.000 2.000 2.000 0.000 0.000
 2.000 2.000 2.000 2.000 0.000 0.000
 2.000 2.000 2.000 2.000 0.000 0.000
 2.000 2.000 2.000 2.000 0.000 0.000
 2.000 2.000 2.000 2.000 0.000 0.000
 2.000 2.000 2.000 2.000 0.000 0.000
 newocc: prtvol=0, stop printing more k-point information
mkrho: echo density (plane-wave part only)
 Total charge density [el/Bohr^3]
      Maximum=    2.4250E-01  at reduced coord.    0.0625    0.1250    0.7500
      Minimum=    1.3724E-02  at reduced coord.    0.5000    0.5000    0.5000
   Integrated=    7.5904E+00
 
 *********** RHOIJ (atom   1) **********
   1.61537   0.04426   0.00000   0.00000   0.00000   0.00000   0.00000   0.00000
   0.04426   0.00167   0.00000   0.00000   0.00000   0.00000   0.00000   0.00000
   0.00000   0.00000   1.41647   0.00000   0.00000   0.06364   0.00000   0.00000
   0.00000   0.00000   0.00000   1.41647   0.00000   0.00000   0.06364   0.00000
   0.00000   0.00000   0.00000   0.00000   1.41647   0.00000   0.00000   0.06364
   0.00000   0.00000   0.06364   0.00000   0.00000   0.00338   0.00000   0.00000
   0.00000   0.00000   0.00000   0.06364   0.00000   0.00000   0.00338   0.00000
   0.00000   0.00000   0.00000   0.00000   0.06364   0.00000   0.00000   0.00338
 
 *********** RHOIJ (atom   2) **********
   1.61537   0.04426   0.00000   0.00000   0.00000   0.00000   0.00000   0.00000
   0.04426   0.00167   0.00000   0.00000   0.00000   0.00000   0.00000   0.00000
   0.00000   0.00000   1.41647   0.00000   0.00000   0.06364   0.00000   0.00000
   0.00000   0.00000   0.00000   1.41647   0.00000   0.00000   0.06364   0.00000
   0.00000   0.00000   0.00000   0.00000   1.41647   0.00000   0.00000   0.06364
   0.00000   0.00000   0.06364   0.00000   0.00000   0.00338   0.00000   0.00000
   0.00000   0.00000   0.00000   0.06364   0.00000   0.00000   0.00338   0.00000
   0.00000   0.00000   0.00000   0.00000   0.06364   0.00000   0.00000   0.00338
 
 Total charge density [el/Bohr^3]
      Maximum=    2.7290E-01  at reduced coord.    0.0417    0.0833    0.8333
      Minimum=    1.3724E-02  at reduced coord.    0.5000    0.5000    0.5000
   Integrated=    8.0000E+00
 ETOT  4  -11.524585269349    -5.807E-06 1.571E-07 3.978E-04
 scprqt: <Vxc>= -4.9526829E-01 hartree
 
 Pulay update with  3 previous iterations:
 mixing of old trial potential : alpha(m:m-4)=   1.46     -0.587      0.195     -0.669E-01
  rhotov : is_hybrid_ncpp= F
  rhotov : n3xccc=       13824
 scfcv_core: previous iteration took 00 [s]
 average electrostatic smooth potential [Ha] , [eV]      0.000000        0.000000
 
 ****** Psp strength Dij in Ha (atom      1) *****
   0.59004  -1.64872  -0.00000  -0.00000  -0.00000   0.00000   0.00000   0.00000
  -1.64872   4.11655   0.00000   0.00000   0.00000  -0.00000  -0.00000  -0.00000
  -0.00000   0.00000  -0.03419   0.00000   0.00000  -0.22969  -0.00000  -0.00000
  -0.00000   0.00000   0.00000  -0.03419   0.00000  -0.00000  -0.22969  -0.00000
  -0.00000   0.00000   0.00000   0.00000  -0.03419  -0.00000  -0.00000  -0.22969
   0.00000  -0.00000  -0.22969  -0.00000  -0.00000   2.94437   0.00000   0.00000
   0.00000  -0.00000  -0.00000  -0.22969  -0.00000   0.00000   2.94437   0.00000
   0.00000  -0.00000  -0.00000  -0.00000  -0.22969   0.00000   0.00000   2.94437
 
 ****** Psp strength Dij in Ha (atom      2) *****
   0.59004  -1.64872   0.00000   0.00000   0.00000  -0.00000  -0.00000  -0.00000
  -1.64872   4.11655  -0.00000  -0.00000  -0.00000   0.00000   0.00000   0.00000
   0.00000  -0.00000  -0.03419   0.00000   0.00000  -0.22969  -0.00000  -0.00000
   0.00000  -0.00000   0.00000  -0.03419   0.00000  -0.00000  -0.22969  -0.00000
   0.00000  -0.00000   0.00000   0.00000  -0.03419  -0.00000  -0.00000  -0.22969
  -0.00000   0.00000  -0.22969  -0.00000  -0.00000   2.94437   0.00000   0.00000
  -0.00000   0.00000  -0.00000  -0.22969  -0.00000   0.00000   2.94437   0.00000
  -0.00000   0.00000  -0.00000  -0.00000  -0.22969   0.00000   0.00000   2.94437
 
 
 ITER STEP NUMBER     5
 vtorho : nnsclo_now=1, note that nnsclo,dbl_nnsclo,istep=0 0 5
 newocc: new Fermi energy is       0.494711 , with nelect=      8.000000
  Number of bissection calls =   4
 newocc : computed new occ. numbers for occopt= 7 , spin-unpolarized case.
 2.000 2.000 2.000 2.000 0.000 0.000
 2.000 2.000 2.000 2.000 0.000 0.000
 2.000 2.000 2.000 2.000 0.000 0.000
 2.000 2.000 2.000 2.000 0.000 0.000
 2.000 2.000 2.000 2.000 0.000 0.000
 2.000 2.000 2.000 2.000 0.000 0.000
 2.000 2.000 2.000 2.000 0.000 0.000
 2.000 2.000 2.000 2.000 0.000 0.000
 2.000 2.000 2.000 2.000 0.000 0.000
 2.000 2.000 2.000 2.000 0.000 0.000
 2.000 2.000 2.000 2.000 0.000 0.000
 2.000 2.000 2.000 2.000 0.000 0.000
 2.000 2.000 2.000 2.000 0.000 0.000
 2.000 2.000 2.000 2.000 0.000 0.000
 2.000 2.000 2.000 2.000 0.000 0.000
 2.000 2.000 2.000 2.000 0.000 0.000
 2.000 2.000 2.000 2.000 0.000 0.000
 2.000 2.000 2.000 2.000 0.000 0.000
 2.000 2.000 2.000 2.000 0.000 0.000
 2.000 2.000 2.000 2.000 0.000 0.000
 2.000 2.000 2.000 2.000 0.000 0.000
 2.000 2.000 2.000 2.000 0.000 0.000
 2.000 2.000 2.000 2.000 0.000 0.000
 2.000 2.000 2.000 2.000 0.000 0.000
 2.000 2.000 2.000 2.000 0.000 0.000
 2.000 2.000 2.000 2.000 0.000 0.000
 2.000 2.000 2.000 2.000 0.000 0.000
 2.000 2.000 2.000 2.000 0.000 0.000
 2.000 2.000 2.000 2.000 0.000 0.000
 2.000 2.000 2.000 2.000 0.000 0.000
 2.000 2.000 2.000 2.000 0.000 0.000
 2.000 2.000 2.000 2.000 0.000 0.000
 2.000 2.000 2.000 2.000 0.000 0.000
 2.000 2.000 2.000 2.000 0.000 0.000
 2.000 2.000 2.000 2.000 0.000 0.000
 2.000 2.000 2.000 2.000 0.000 0.000
 2.000 2.000 2.000 2.000 0.000 0.000
 2.000 2.000 2.000 2.000 0.000 0.000
 2.000 2.000 2.000 2.000 0.000 0.000
 2.000 2.000 2.000 2.000 0.000 0.000
 2.000 2.000 2.000 2.000 0.000 0.000
 2.000 2.000 2.000 2.000 0.000 0.000
 2.000 2.000 2.000 2.000 0.000 0.000
 2.000 2.000 2.000 2.000 0.000 0.000
 2.000 2.000 2.000 2.000 0.000 0.000
 2.000 2.000 2.000 2.000 0.000 0.000
 2.000 2.000 2.000 2.000 0.000 0.000
 2.000 2.000 2.000 2.000 0.000 0.000
 2.000 2.000 2.000 2.000 0.000 0.000
 2.000 2.000 2.000 2.000 0.000 0.000
 newocc: prtvol=0, stop printing more k-point information
mkrho: echo density (plane-wave part only)
 Total charge density [el/Bohr^3]
      Maximum=    2.4240E-01  at reduced coord.    0.0625    0.1250    0.7500
      Minimum=    1.3738E-02  at reduced coord.    0.5000    0.5000    0.5000
   Integrated=    7.5907E+00
 
 *********** RHOIJ (atom   1) **********
   1.61512   0.04429   0.00000   0.00000   0.00000   0.00000   0.00000   0.00000
   0.04429   0.00167   0.00000   0.00000   0.00000   0.00000   0.00000   0.00000
   0.00000   0.00000   1.41626   0.00000   0.00000   0.06370   0.00000   0.00000
   0.00000   0.00000   0.00000   1.41626   0.00000   0.00000   0.06370   0.00000
   0.00000   0.00000   0.00000   0.00000   1.41626   0.00000   0.00000   0.06370
   0.00000   0.00000   0.06370   0.00000   0.00000   0.00339   0.00000   0.00000
   0.00000   0.00000   0.00000   0.06370   0.00000   0.00000   0.00339   0.00000
   0.00000   0.00000   0.00000   0.00000   0.06370   0.00000   0.00000   0.00339
 
 *********** RHOIJ (atom   2) **********
   1.61512   0.04429   0.00000   0.00000   0.00000   0.00000   0.00000   0.00000
   0.04429   0.00167   0.00000   0.00000   0.00000   0.00000   0.00000   0.00000
   0.00000   0.00000   1.41626   0.00000   0.00000   0.06370   0.00000   0.00000
   0.00000   0.00000   0.00000   1.41626   0.00000   0.00000   0.06370   0.00000
   0.00000   0.00000   0.00000   0.00000   1.41626   0.00000   0.00000   0.06370
   0.00000   0.00000   0.06370   0.00000   0.00000   0.00339   0.00000   0.00000
   0.00000   0.00000   0.00000   0.06370   0.00000   0.00000   0.00339   0.00000
   0.00000   0.00000   0.00000   0.00000   0.06370   0.00000   0.00000   0.00339
 
 Total charge density [el/Bohr^3]
      Maximum=    2.7277E-01  at reduced coord.    0.0417    0.0833    0.8333
      Minimum=    1.3738E-02  at reduced coord.    0.5000    0.5000    0.5000
   Integrated=    8.0000E+00
 ETOT  5  -11.524584583707     6.856E-07 3.308E-08 2.484E-05
 scprqt: <Vxc>= -4.9507340E-01 hartree
 
 Pulay update with  4 previous iterations:
 mixing of old trial potential : alpha(m:m-4)=   1.07     -0.763E-01 -0.916E-02  0.143E-01 -0.193E-02
  rhotov : is_hybrid_ncpp= F
  rhotov : n3xccc=       13824
 scfcv_core: previous iteration took 00 [s]
 average electrostatic smooth potential [Ha] , [eV]      0.000000        0.000000
 
 ****** Psp strength Dij in Ha (atom      1) *****
   0.59005  -1.64876  -0.00000  -0.00000  -0.00000   0.00000   0.00000   0.00000
  -1.64876   4.11670   0.00000   0.00000   0.00000  -0.00000  -0.00000  -0.00000
  -0.00000   0.00000  -0.03420   0.00000   0.00000  -0.22965  -0.00000  -0.00000
  -0.00000   0.00000   0.00000  -0.03420   0.00000  -0.00000  -0.22965  -0.00000
  -0.00000   0.00000   0.00000   0.00000  -0.03420  -0.00000  -0.00000  -0.22965
   0.00000  -0.00000  -0.22965  -0.00000  -0.00000   2.94424   0.00000   0.00000
   0.00000  -0.00000  -0.00000  -0.22965  -0.00000   0.00000   2.94424   0.00000
   0.00000  -0.00000  -0.00000  -0.00000  -0.22965   0.00000   0.00000   2.94424
 
 ****** Psp strength Dij in Ha (atom      2) *****
   0.59005  -1.64876   0.00000   0.00000   0.00000  -0.00000  -0.00000  -0.00000
  -1.64876   4.11670  -0.00000  -0.00000  -0.00000   0.00000   0.00000   0.00000
   0.00000  -0.00000  -0.03420   0.00000   0.00000  -0.22965  -0.00000  -0.00000
   0.00000  -0.00000   0.00000  -0.03420   0.00000  -0.00000  -0.22965  -0.00000
   0.00000  -0.00000   0.00000   0.00000  -0.03420  -0.00000  -0.00000  -0.22965
  -0.00000   0.00000  -0.22965  -0.00000  -0.00000   2.94424   0.00000   0.00000
  -0.00000   0.00000  -0.00000  -0.22965  -0.00000   0.00000   2.94424   0.00000
  -0.00000   0.00000  -0.00000  -0.00000  -0.22965   0.00000   0.00000   2.94424
 
 
 ITER STEP NUMBER     6
 vtorho : nnsclo_now=1, note that nnsclo,dbl_nnsclo,istep=0 0 6
 newocc: new Fermi energy is       0.494642 , with nelect=      8.000000
  Number of bissection calls =   4
 newocc : computed new occ. numbers for occopt= 7 , spin-unpolarized case.
 2.000 2.000 2.000 2.000 0.000 0.000
 2.000 2.000 2.000 2.000 0.000 0.000
 2.000 2.000 2.000 2.000 0.000 0.000
 2.000 2.000 2.000 2.000 0.000 0.000
 2.000 2.000 2.000 2.000 0.000 0.000
 2.000 2.000 2.000 2.000 0.000 0.000
 2.000 2.000 2.000 2.000 0.000 0.000
 2.000 2.000 2.000 2.000 0.000 0.000
 2.000 2.000 2.000 2.000 0.000 0.000
 2.000 2.000 2.000 2.000 0.000 0.000
 2.000 2.000 2.000 2.000 0.000 0.000
 2.000 2.000 2.000 2.000 0.000 0.000
 2.000 2.000 2.000 2.000 0.000 0.000
 2.000 2.000 2.000 2.000 0.000 0.000
 2.000 2.000 2.000 2.000 0.000 0.000
 2.000 2.000 2.000 2.000 0.000 0.000
 2.000 2.000 2.000 2.000 0.000 0.000
 2.000 2.000 2.000 2.000 0.000 0.000
 2.000 2.000 2.000 2.000 0.000 0.000
 2.000 2.000 2.000 2.000 0.000 0.000
 2.000 2.000 2.000 2.000 0.000 0.000
 2.000 2.000 2.000 2.000 0.000 0.000
 2.000 2.000 2.000 2.000 0.000 0.000
 2.000 2.000 2.000 2.000 0.000 0.000
 2.000 2.000 2.000 2.000 0.000 0.000
 2.000 2.000 2.000 2.000 0.000 0.000
 2.000 2.000 2.000 2.000 0.000 0.000
 2.000 2.000 2.000 2.000 0.000 0.000
 2.000 2.000 2.000 2.000 0.000 0.000
 2.000 2.000 2.000 2.000 0.000 0.000
 2.000 2.000 2.000 2.000 0.000 0.000
 2.000 2.000 2.000 2.000 0.000 0.000
 2.000 2.000 2.000 2.000 0.000 0.000
 2.000 2.000 2.000 2.000 0.000 0.000
 2.000 2.000 2.000 2.000 0.000 0.000
 2.000 2.000 2.000 2.000 0.000 0.000
 2.000 2.000 2.000 2.000 0.000 0.000
 2.000 2.000 2.000 2.000 0.000 0.000
 2.000 2.000 2.000 2.000 0.000 0.000
 2.000 2.000 2.000 2.000 0.000 0.000
 2.000 2.000 2.000 2.000 0.000 0.000
 2.000 2.000 2.000 2.000 0.000 0.000
 2.000 2.000 2.000 2.000 0.000 0.000
 2.000 2.000 2.000 2.000 0.000 0.000
 2.000 2.000 2.000 2.000 0.000 0.000
 2.000 2.000 2.000 2.000 0.000 0.000
 2.000 2.000 2.000 2.000 0.000 0.000
 2.000 2.000 2.000 2.000 0.000 0.000
 2.000 2.000 2.000 2.000 0.000 0.000
 2.000 2.000 2.000 2.000 0.000 0.000
 newocc: prtvol=0, stop printing more k-point information
mkrho: echo density (plane-wave part only)
 Total charge density [el/Bohr^3]
      Maximum=    2.4242E-01  at reduced coord.    0.0625    0.1250    0.7500
      Minimum=    1.3733E-02  at reduced coord.    0.5000    0.5000    0.5000
   Integrated=    7.5906E+00
 
 *********** RHOIJ (atom   1) **********
   1.61519   0.04430   0.00000   0.00000   0.00000   0.00000   0.00000   0.00000
   0.04430   0.00167   0.00000   0.00000   0.00000   0.00000   0.00000   0.00000
   0.00000   0.00000   1.41630   0.00000   0.00000   0.06369   0.00000   0.00000
   0.00000   0.00000   0.00000   1.41630   0.00000   0.00000   0.06369   0.00000
   0.00000   0.00000   0.00000   0.00000   1.41630   0.00000   0.00000   0.06369
   0.00000   0.00000   0.06369   0.00000   0.00000   0.00339   0.00000   0.00000
   0.00000   0.00000   0.00000   0.06369   0.00000   0.00000   0.00339   0.00000
   0.00000   0.00000   0.00000   0.00000   0.06369   0.00000   0.00000   0.00339
 
 *********** RHOIJ (atom   2) **********
   1.61519   0.04430   0.00000   0.00000   0.00000   0.00000   0.00000   0.00000
   0.04430   0.00167   0.00000   0.00000   0.00000   0.00000   0.00000   0.00000
   0.00000   0.00000   1.41630   0.00000   0.00000   0.06369   0.00000   0.00000
   0.00000   0.00000   0.00000   1.41630   0.00000   0.00000   0.06369   0.00000
   0.00000   0.00000   0.00000   0.00000   1.41630   0.00000   0.00000   0.06369
   0.00000   0.00000   0.06369   0.00000   0.00000   0.00339   0.00000   0.00000
   0.00000   0.00000   0.00000   0.06369   0.00000   0.00000   0.00339   0.00000
   0.00000   0.00000   0.00000   0.00000   0.06369   0.00000   0.00000   0.00339
 
 Total charge density [el/Bohr^3]
      Maximum=    2.7279E-01  at reduced coord.    0.0417    0.0833    0.8333
      Minimum=    1.3733E-02  at reduced coord.    0.5000    0.5000    0.5000
   Integrated=    8.0000E+00
 ETOT  6  -11.524584515296     6.841E-08 1.161E-09 2.063E-08
 scprqt: <Vxc>= -4.9509790E-01 hartree
 
 Pulay update with  5 previous iterations:
 mixing of old trial potential : alpha(m:m-4)=   1.35     -0.369      0.153E-01  0.331E-02 -0.472E-02
  rhotov : is_hybrid_ncpp= F
  rhotov : n3xccc=       13824
 scfcv_core: previous iteration took 00 [s]
 average electrostatic smooth potential [Ha] , [eV]      0.000000        0.000000
 
 ****** Psp strength Dij in Ha (atom      1) *****
   0.59005  -1.64876  -0.00000  -0.00000  -0.00000   0.00000   0.00000   0.00000
  -1.64876   4.11670   0.00000   0.00000   0.00000  -0.00000  -0.00000  -0.00000
  -0.00000   0.00000  -0.03420   0.00000   0.00000  -0.22964  -0.00000  -0.00000
  -0.00000   0.00000   0.00000  -0.03420   0.00000  -0.00000  -0.22964  -0.00000
  -0.00000   0.00000   0.00000   0.00000  -0.03420  -0.00000  -0.00000  -0.22964
   0.00000  -0.00000  -0.22964  -0.00000  -0.00000   2.94424   0.00000   0.00000
   0.00000  -0.00000  -0.00000  -0.22964  -0.00000   0.00000   2.94424   0.00000
   0.00000  -0.00000  -0.00000  -0.00000  -0.22964   0.00000   0.00000   2.94424
 
 ****** Psp strength Dij in Ha (atom      2) *****
   0.59005  -1.64876   0.00000   0.00000   0.00000  -0.00000  -0.00000  -0.00000
  -1.64876   4.11670  -0.00000  -0.00000  -0.00000   0.00000   0.00000   0.00000
   0.00000  -0.00000  -0.03420   0.00000   0.00000  -0.22964  -0.00000  -0.00000
   0.00000  -0.00000   0.00000  -0.03420   0.00000  -0.00000  -0.22964  -0.00000
   0.00000  -0.00000   0.00000   0.00000  -0.03420  -0.00000  -0.00000  -0.22964
  -0.00000   0.00000  -0.22964  -0.00000  -0.00000   2.94424   0.00000   0.00000
  -0.00000   0.00000  -0.00000  -0.22964  -0.00000   0.00000   2.94424   0.00000
  -0.00000   0.00000  -0.00000  -0.00000  -0.22964   0.00000   0.00000   2.94424
 
 
 ITER STEP NUMBER     7
 vtorho : nnsclo_now=1, note that nnsclo,dbl_nnsclo,istep=0 0 7
 newocc: new Fermi energy is       0.494640 , with nelect=      8.000000
  Number of bissection calls =   4
 newocc : computed new occ. numbers for occopt= 7 , spin-unpolarized case.
 2.000 2.000 2.000 2.000 0.000 0.000
 2.000 2.000 2.000 2.000 0.000 0.000
 2.000 2.000 2.000 2.000 0.000 0.000
 2.000 2.000 2.000 2.000 0.000 0.000
 2.000 2.000 2.000 2.000 0.000 0.000
 2.000 2.000 2.000 2.000 0.000 0.000
 2.000 2.000 2.000 2.000 0.000 0.000
 2.000 2.000 2.000 2.000 0.000 0.000
 2.000 2.000 2.000 2.000 0.000 0.000
 2.000 2.000 2.000 2.000 0.000 0.000
 2.000 2.000 2.000 2.000 0.000 0.000
 2.000 2.000 2.000 2.000 0.000 0.000
 2.000 2.000 2.000 2.000 0.000 0.000
 2.000 2.000 2.000 2.000 0.000 0.000
 2.000 2.000 2.000 2.000 0.000 0.000
 2.000 2.000 2.000 2.000 0.000 0.000
 2.000 2.000 2.000 2.000 0.000 0.000
 2.000 2.000 2.000 2.000 0.000 0.000
 2.000 2.000 2.000 2.000 0.000 0.000
 2.000 2.000 2.000 2.000 0.000 0.000
 2.000 2.000 2.000 2.000 0.000 0.000
 2.000 2.000 2.000 2.000 0.000 0.000
 2.000 2.000 2.000 2.000 0.000 0.000
 2.000 2.000 2.000 2.000 0.000 0.000
 2.000 2.000 2.000 2.000 0.000 0.000
 2.000 2.000 2.000 2.000 0.000 0.000
 2.000 2.000 2.000 2.000 0.000 0.000
 2.000 2.000 2.000 2.000 0.000 0.000
 2.000 2.000 2.000 2.000 0.000 0.000
 2.000 2.000 2.000 2.000 0.000 0.000
 2.000 2.000 2.000 2.000 0.000 0.000
 2.000 2.000 2.000 2.000 0.000 0.000
 2.000 2.000 2.000 2.000 0.000 0.000
 2.000 2.000 2.000 2.000 0.000 0.000
 2.000 2.000 2.000 2.000 0.000 0.000
 2.000 2.000 2.000 2.000 0.000 0.000
 2.000 2.000 2.000 2.000 0.000 0.000
 2.000 2.000 2.000 2.000 0.000 0.000
 2.000 2.000 2.000 2.000 0.000 0.000
 2.000 2.000 2.000 2.000 0.000 0.000
 2.000 2.000 2.000 2.000 0.000 0.000
 2.000 2.000 2.000 2.000 0.000 0.000
 2.000 2.000 2.000 2.000 0.000 0.000
 2.000 2.000 2.000 2.000 0.000 0.000
 2.000 2.000 2.000 2.000 0.000 0.000
 2.000 2.000 2.000 2.000 0.000 0.000
 2.000 2.000 2.000 2.000 0.000 0.000
 2.000 2.000 2.000 2.000 0.000 0.000
 2.000 2.000 2.000 2.000 0.000 0.000
 2.000 2.000 2.000 2.000 0.000 0.000
 newocc: prtvol=0, stop printing more k-point information
mkrho: echo density (plane-wave part only)
 Total charge density [el/Bohr^3]
      Maximum=    2.4242E-01  at reduced coord.    0.0625    0.1250    0.7500
      Minimum=    1.3733E-02  at reduced coord.    0.5000    0.5000    0.5000
   Integrated=    7.5906E+00
 
 *********** RHOIJ (atom   1) **********
   1.61519   0.04430   0.00000   0.00000   0.00000   0.00000   0.00000   0.00000
   0.04430   0.00167   0.00000   0.00000   0.00000   0.00000   0.00000   0.00000
   0.00000   0.00000   1.41630   0.00000   0.00000   0.06369   0.00000   0.00000
   0.00000   0.00000   0.00000   1.41630   0.00000   0.00000   0.06369   0.00000
   0.00000   0.00000   0.00000   0.00000   1.41630   0.00000   0.00000   0.06369
   0.00000   0.00000   0.06369   0.00000   0.00000   0.00339   0.00000   0.00000
   0.00000   0.00000   0.00000   0.06369   0.00000   0.00000   0.00339   0.00000
   0.00000   0.00000   0.00000   0.00000   0.06369   0.00000   0.00000   0.00339
 
 *********** RHOIJ (atom   2) **********
   1.61519   0.04430   0.00000   0.00000   0.00000   0.00000   0.00000   0.00000
   0.04430   0.00167   0.00000   0.00000   0.00000   0.00000   0.00000   0.00000
   0.00000   0.00000   1.41630   0.00000   0.00000   0.06369   0.00000   0.00000
   0.00000   0.00000   0.00000   1.41630   0.00000   0.00000   0.06369   0.00000
   0.00000   0.00000   0.00000   0.00000   1.41630   0.00000   0.00000   0.06369
   0.00000   0.00000   0.06369   0.00000   0.00000   0.00339   0.00000   0.00000
   0.00000   0.00000   0.00000   0.06369   0.00000   0.00000   0.00339   0.00000
   0.00000   0.00000   0.00000   0.00000   0.06369   0.00000   0.00000   0.00339
 
 Total charge density [el/Bohr^3]
      Maximum=    2.7279E-01  at reduced coord.    0.0417    0.0833    0.8333
      Minimum=    1.3733E-02  at reduced coord.    0.5000    0.5000    0.5000
   Integrated=    8.0000E+00
 ETOT  7  -11.524584515455    -1.593E-10 1.637E-12 2.890E-09
 scprqt: <Vxc>= -4.9509755E-01 hartree
 
 Pulay update with  6 previous iterations:
 mixing of old trial potential : alpha(m:m-4)=   1.37     -0.431      0.562E-01  0.495E-02 -0.561E-03
  rhotov : is_hybrid_ncpp= F
  rhotov : n3xccc=       13824
 scfcv_core: previous iteration took 00 [s]
 average electrostatic smooth potential [Ha] , [eV]      0.000000        0.000000
 
 ****** Psp strength Dij in Ha (atom      1) *****
   0.59005  -1.64876  -0.00000  -0.00000  -0.00000   0.00000   0.00000   0.00000
  -1.64876   4.11670   0.00000   0.00000   0.00000  -0.00000  -0.00000  -0.00000
  -0.00000   0.00000  -0.03420   0.00000   0.00000  -0.22964  -0.00000  -0.00000
  -0.00000   0.00000   0.00000  -0.03420   0.00000  -0.00000  -0.22964  -0.00000
  -0.00000   0.00000   0.00000   0.00000  -0.03420  -0.00000  -0.00000  -0.22964
   0.00000  -0.00000  -0.22964  -0.00000  -0.00000   2.94424   0.00000   0.00000
   0.00000  -0.00000  -0.00000  -0.22964  -0.00000   0.00000   2.94424   0.00000
   0.00000  -0.00000  -0.00000  -0.00000  -0.22964   0.00000   0.00000   2.94424
 
 ****** Psp strength Dij in Ha (atom      2) *****
   0.59005  -1.64876   0.00000   0.00000   0.00000  -0.00000  -0.00000  -0.00000
  -1.64876   4.11670  -0.00000  -0.00000  -0.00000   0.00000   0.00000   0.00000
   0.00000  -0.00000  -0.03420   0.00000   0.00000  -0.22964  -0.00000  -0.00000
   0.00000  -0.00000   0.00000  -0.03420   0.00000  -0.00000  -0.22964  -0.00000
   0.00000  -0.00000   0.00000   0.00000  -0.03420  -0.00000  -0.00000  -0.22964
  -0.00000   0.00000  -0.22964  -0.00000  -0.00000   2.94424   0.00000   0.00000
  -0.00000   0.00000  -0.00000  -0.22964  -0.00000   0.00000   2.94424   0.00000
  -0.00000   0.00000  -0.00000  -0.00000  -0.22964   0.00000   0.00000   2.94424
 
 
 ITER STEP NUMBER     8
 vtorho : nnsclo_now=1, note that nnsclo,dbl_nnsclo,istep=0 0 8
 newocc: new Fermi energy is       0.494639 , with nelect=      8.000000
  Number of bissection calls =   4
 newocc : computed new occ. numbers for occopt= 7 , spin-unpolarized case.
 2.000 2.000 2.000 2.000 0.000 0.000
 2.000 2.000 2.000 2.000 0.000 0.000
 2.000 2.000 2.000 2.000 0.000 0.000
 2.000 2.000 2.000 2.000 0.000 0.000
 2.000 2.000 2.000 2.000 0.000 0.000
 2.000 2.000 2.000 2.000 0.000 0.000
 2.000 2.000 2.000 2.000 0.000 0.000
 2.000 2.000 2.000 2.000 0.000 0.000
 2.000 2.000 2.000 2.000 0.000 0.000
 2.000 2.000 2.000 2.000 0.000 0.000
 2.000 2.000 2.000 2.000 0.000 0.000
 2.000 2.000 2.000 2.000 0.000 0.000
 2.000 2.000 2.000 2.000 0.000 0.000
 2.000 2.000 2.000 2.000 0.000 0.000
 2.000 2.000 2.000 2.000 0.000 0.000
 2.000 2.000 2.000 2.000 0.000 0.000
 2.000 2.000 2.000 2.000 0.000 0.000
 2.000 2.000 2.000 2.000 0.000 0.000
 2.000 2.000 2.000 2.000 0.000 0.000
 2.000 2.000 2.000 2.000 0.000 0.000
 2.000 2.000 2.000 2.000 0.000 0.000
 2.000 2.000 2.000 2.000 0.000 0.000
 2.000 2.000 2.000 2.000 0.000 0.000
 2.000 2.000 2.000 2.000 0.000 0.000
 2.000 2.000 2.000 2.000 0.000 0.000
 2.000 2.000 2.000 2.000 0.000 0.000
 2.000 2.000 2.000 2.000 0.000 0.000
 2.000 2.000 2.000 2.000 0.000 0.000
 2.000 2.000 2.000 2.000 0.000 0.000
 2.000 2.000 2.000 2.000 0.000 0.000
 2.000 2.000 2.000 2.000 0.000 0.000
 2.000 2.000 2.000 2.000 0.000 0.000
 2.000 2.000 2.000 2.000 0.000 0.000
 2.000 2.000 2.000 2.000 0.000 0.000
 2.000 2.000 2.000 2.000 0.000 0.000
 2.000 2.000 2.000 2.000 0.000 0.000
 2.000 2.000 2.000 2.000 0.000 0.000
 2.000 2.000 2.000 2.000 0.000 0.000
 2.000 2.000 2.000 2.000 0.000 0.000
 2.000 2.000 2.000 2.000 0.000 0.000
 2.000 2.000 2.000 2.000 0.000 0.000
 2.000 2.000 2.000 2.000 0.000 0.000
 2.000 2.000 2.000 2.000 0.000 0.000
 2.000 2.000 2.000 2.000 0.000 0.000
 2.000 2.000 2.000 2.000 0.000 0.000
 2.000 2.000 2.000 2.000 0.000 0.000
 2.000 2.000 2.000 2.000 0.000 0.000
 2.000 2.000 2.000 2.000 0.000 0.000
 2.000 2.000 2.000 2.000 0.000 0.000
 2.000 2.000 2.000 2.000 0.000 0.000
 newocc: prtvol=0, stop printing more k-point information
mkrho: echo density (plane-wave part only)
 Total charge density [el/Bohr^3]
      Maximum=    2.4242E-01  at reduced coord.    0.0625    0.1250    0.7500
      Minimum=    1.3733E-02  at reduced coord.    0.5000    0.5000    0.5000
   Integrated=    7.5906E+00
 
 *********** RHOIJ (atom   1) **********
   1.61519   0.04430   0.00000   0.00000   0.00000   0.00000   0.00000   0.00000
   0.04430   0.00167   0.00000   0.00000   0.00000   0.00000   0.00000   0.00000
   0.00000   0.00000   1.41630   0.00000   0.00000   0.06369   0.00000   0.00000
   0.00000   0.00000   0.00000   1.41630   0.00000   0.00000   0.06369   0.00000
   0.00000   0.00000   0.00000   0.00000   1.41630   0.00000   0.00000   0.06369
   0.00000   0.00000   0.06369   0.00000   0.00000   0.00339   0.00000   0.00000
   0.00000   0.00000   0.00000   0.06369   0.00000   0.00000   0.00339   0.00000
   0.00000   0.00000   0.00000   0.00000   0.06369   0.00000   0.00000   0.00339
 
 *********** RHOIJ (atom   2) **********
   1.61519   0.04430   0.00000   0.00000   0.00000   0.00000   0.00000   0.00000
   0.04430   0.00167   0.00000   0.00000   0.00000   0.00000   0.00000   0.00000
   0.00000   0.00000   1.41630   0.00000   0.00000   0.06369   0.00000   0.00000
   0.00000   0.00000   0.00000   1.41630   0.00000   0.00000   0.06369   0.00000
   0.00000   0.00000   0.00000   0.00000   1.41630   0.00000   0.00000   0.06369
   0.00000   0.00000   0.06369   0.00000   0.00000   0.00339   0.00000   0.00000
   0.00000   0.00000   0.00000   0.06369   0.00000   0.00000   0.00339   0.00000
[...]
              ixc           7
              kpt     -5.00000000E-02 -1.00000000E-01  0.00000000E+00
                      -5.00000000E-02 -2.00000000E-01  0.00000000E+00
                      -1.00000000E-01 -1.50000000E-01  0.00000000E+00
                      -5.00000000E-02 -1.50000000E-01  5.00000000E-02
                      -5.00000000E-02 -3.00000000E-01  0.00000000E+00
                      -1.00000000E-01 -2.50000000E-01  0.00000000E+00
                      -5.00000000E-02 -2.50000000E-01  5.00000000E-02
                      -1.50000000E-01 -2.00000000E-01  0.00000000E+00
                      -1.00000000E-01 -2.00000000E-01  5.00000000E-02
                      -5.00000000E-02 -2.00000000E-01  1.00000000E-01
                      -5.00000000E-02 -4.00000000E-01  0.00000000E+00
                      -1.00000000E-01 -3.50000000E-01  0.00000000E+00
                      -5.00000000E-02 -3.50000000E-01  5.00000000E-02
                      -1.50000000E-01 -3.00000000E-01  0.00000000E+00
                      -1.00000000E-01 -3.00000000E-01  5.00000000E-02
                      -5.00000000E-02 -3.00000000E-01  1.00000000E-01
                      -2.00000000E-01 -2.50000000E-01  0.00000000E+00
                      -1.50000000E-01 -2.50000000E-01  5.00000000E-02
                      -1.00000000E-01 -2.50000000E-01  1.00000000E-01
                      -5.00000000E-02 -2.50000000E-01  1.50000000E-01
                      -5.00000000E-02  5.00000000E-01  0.00000000E+00
                      -1.00000000E-01 -4.50000000E-01  0.00000000E+00
                      -5.00000000E-02 -4.50000000E-01  5.00000000E-02
                      -1.50000000E-01 -4.00000000E-01  0.00000000E+00
                      -1.00000000E-01 -4.00000000E-01  5.00000000E-02
                      -5.00000000E-02 -4.00000000E-01  1.00000000E-01
                      -2.00000000E-01 -3.50000000E-01  0.00000000E+00
                      -1.50000000E-01 -3.50000000E-01  5.00000000E-02
                      -1.00000000E-01 -3.50000000E-01  1.00000000E-01
                      -5.00000000E-02 -3.50000000E-01  1.50000000E-01
                      -2.50000000E-01 -3.00000000E-01  0.00000000E+00
                      -2.00000000E-01 -3.00000000E-01  5.00000000E-02
                      -1.50000000E-01 -3.00000000E-01  1.00000000E-01
                      -1.00000000E-01 -3.00000000E-01  1.50000000E-01
                      -5.00000000E-02 -3.00000000E-01  2.00000000E-01
                      -5.00000000E-02  4.00000000E-01  0.00000000E+00
                      -1.00000000E-01  4.50000000E-01  0.00000000E+00
                      -1.50000000E-01  5.00000000E-01  0.00000000E+00
                      -1.00000000E-01  5.00000000E-01  5.00000000E-02
                      -2.00000000E-01 -4.50000000E-01  0.00000000E+00
                      -1.50000000E-01 -4.50000000E-01  5.00000000E-02
                      -1.00000000E-01 -4.50000000E-01  1.00000000E-01
                      -5.00000000E-02 -4.50000000E-01  1.50000000E-01
                      -2.50000000E-01 -4.00000000E-01  0.00000000E+00
                      -2.00000000E-01 -4.00000000E-01  5.00000000E-02
                      -1.50000000E-01 -4.00000000E-01  1.00000000E-01
                      -1.00000000E-01 -4.00000000E-01  1.50000000E-01
                      -5.00000000E-02 -4.00000000E-01  2.00000000E-01
                      -3.00000000E-01 -3.50000000E-01  0.00000000E+00
                      -2.50000000E-01 -3.50000000E-01  5.00000000E-02
                       outvar_i_n : Printing only first  50 k-points.
         kptrlatt       10  -10   10    -10   10   10    -10  -10   10
          kptrlen      6.74065312E+01
P           mkmem         110
            natom           2
           natsph        1
            nband           6
           nbdbuf           2
            ngfft          16      16      16
          ngfftdg          24      24      24
             nkpt         110
            nstep          10
             nsym          48
           ntypat           1
              occ      2.000000  2.000000  2.000000  2.000000  0.000000  0.000000
                       2.000000  2.000000  2.000000  2.000000  0.000000  0.000000
                       2.000000  2.000000  2.000000  2.000000  0.000000  0.000000
                       2.000000  2.000000  2.000000  2.000000  0.000000  0.000000
                       2.000000  2.000000  2.000000  2.000000  0.000000  0.000000
                       2.000000  2.000000  2.000000  2.000000  0.000000  0.000000
                       2.000000  2.000000  2.000000  2.000000  0.000000  0.000000
                       2.000000  2.000000  2.000000  2.000000  0.000000  0.000000
                       2.000000  2.000000  2.000000  2.000000  0.000000  0.000000
                       2.000000  2.000000  2.000000  2.000000  0.000000  0.000000
                       2.000000  2.000000  2.000000  2.000000  0.000000  0.000000
                       2.000000  2.000000  2.000000  2.000000  0.000000  0.000000
                       2.000000  2.000000  2.000000  2.000000  0.000000  0.000000
                       2.000000  2.000000  2.000000  2.000000  0.000000  0.000000
                       2.000000  2.000000  2.000000  2.000000  0.000000  0.000000
                       2.000000  2.000000  2.000000  2.000000  0.000000  0.000000
                       2.000000  2.000000  2.000000  2.000000  0.000000  0.000000
                       2.000000  2.000000  2.000000  2.000000  0.000000  0.000000
                       2.000000  2.000000  2.000000  2.000000  0.000000  0.000000
                       2.000000  2.000000  2.000000  2.000000  0.000000  0.000000
                       2.000000  2.000000  2.000000  2.000000  0.000000  0.000000
                       2.000000  2.000000  2.000000  2.000000  0.000000  0.000000
                       2.000000  2.000000  2.000000  2.000000  0.000000  0.000000
                       2.000000  2.000000  2.000000  2.000000  0.000000  0.000000
                       2.000000  2.000000  2.000000  2.000000  0.000000  0.000000
                       2.000000  2.000000  2.000000  2.000000  0.000000  0.000000
                       2.000000  2.000000  2.000000  2.000000  0.000000  0.000000
                       2.000000  2.000000  2.000000  2.000000  0.000000  0.000000
                       2.000000  2.000000  2.000000  2.000000  0.000000  0.000000
                       2.000000  2.000000  2.000000  2.000000  0.000000  0.000000
                       2.000000  2.000000  2.000000  2.000000  0.000000  0.000000
                       2.000000  2.000000  2.000000  2.000000  0.000000  0.000000
                       2.000000  2.000000  2.000000  2.000000  0.000000  0.000000
                       2.000000  2.000000  2.000000  2.000000  0.000000  0.000000
                       2.000000  2.000000  2.000000  2.000000  0.000000  0.000000
                       2.000000  2.000000  2.000000  2.000000  0.000000  0.000000
                       2.000000  2.000000  2.000000  2.000000  0.000000  0.000000
                       2.000000  2.000000  2.000000  2.000000  0.000000  0.000000
                       2.000000  2.000000  2.000000  2.000000  0.000000  0.000000
                       2.000000  2.000000  2.000000  2.000000  0.000000  0.000000
                       2.000000  2.000000  2.000000  2.000000  0.000000  0.000000
                       2.000000  2.000000  2.000000  2.000000  0.000000  0.000000
                       2.000000  2.000000  2.000000  2.000000  0.000000  0.000000
                       2.000000  2.000000  2.000000  2.000000  0.000000  0.000000
                       2.000000  2.000000  2.000000  2.000000  0.000000  0.000000
                       2.000000  2.000000  2.000000  2.000000  0.000000  0.000000
                       2.000000  2.000000  2.000000  2.000000  0.000000  0.000000
                       2.000000  2.000000  2.000000  2.000000  0.000000  0.000000
                       2.000000  2.000000  2.000000  2.000000  0.000000  0.000000
                       2.000000  2.000000  2.000000  2.000000  0.000000  0.000000
                       prtocc : prtvol=0, do not print more k-points.
           occopt           7
        pawecutdg      2.40000000E+01 Hartree
        pawprtdos           1
           prtden           0
           prtdos           3
           prteig           0
            prtwf           0
            rprim      0.0000000000E+00  5.0000000000E-01  5.0000000000E-01
                       5.0000000000E-01  0.0000000000E+00  5.0000000000E-01
                       5.0000000000E-01  5.0000000000E-01  0.0000000000E+00
           shiftk      5.00000000E-01  5.00000000E-01  5.00000000E-01
          spgroup         227
           strten      4.1504697993E-04  4.1504697993E-04  4.1504697993E-04
                       0.0000000000E+00  0.0000000000E+00  0.0000000000E+00
           symrel      1  0  0   0  1  0   0  0  1      -1  0  0   0 -1  0   0  0 -1
                       0 -1  1   0 -1  0   1 -1  0       0  1 -1   0  1  0  -1  1  0
                      -1  0  0  -1  0  1  -1  1  0       1  0  0   1  0 -1   1 -1  0
                       0  1 -1   1  0 -1   0  0 -1       0 -1  1  -1  0  1   0  0  1
                      -1  0  0  -1  1  0  -1  0  1       1  0  0   1 -1  0   1  0 -1
                       0 -1  1   1 -1  0   0 -1  0       0  1 -1  -1  1  0   0  1  0
                       1  0  0   0  0  1   0  1  0      -1  0  0   0  0 -1   0 -1  0
                       0  1 -1   0  0 -1   1  0 -1       0 -1  1   0  0  1  -1  0  1
                      -1  0  1  -1  1  0  -1  0  0       1  0 -1   1 -1  0   1  0  0
                       0 -1  0   1 -1  0   0 -1  1       0  1  0  -1  1  0   0  1 -1
                       1  0 -1   0  0 -1   0  1 -1      -1  0  1   0  0  1   0 -1  1
                       0  1  0   0  0  1   1  0  0       0 -1  0   0  0 -1  -1  0  0
                       1  0 -1   0  1 -1   0  0 -1      -1  0  1   0 -1  1   0  0  1
                       0 -1  0   0 -1  1   1 -1  0       0  1  0   0  1 -1  -1  1  0
                      -1  0  1  -1  0  0  -1  1  0       1  0 -1   1  0  0   1 -1  0
                       0  1  0   1  0  0   0  0  1       0 -1  0  -1  0  0   0  0 -1
                       0  0 -1   0  1 -1   1  0 -1       0  0  1   0 -1  1  -1  0  1
                       1 -1  0   0 -1  1   0 -1  0      -1  1  0   0  1 -1   0  1  0
                       0  0  1   1  0  0   0  1  0       0  0 -1  -1  0  0   0 -1  0
                      -1  1  0  -1  0  0  -1  0  1       1 -1  0   1  0  0   1  0 -1
                       0  0  1   0  1  0   1  0  0       0  0 -1   0 -1  0  -1  0  0
                       1 -1  0   0 -1  0   0 -1  1      -1  1  0   0  1  0   0  1 -1
                       0  0 -1   1  0 -1   0  1 -1       0  0  1  -1  0  1   0 -1  1
                      -1  1  0  -1  0  1  -1  0  0       1 -1  0   1  0 -1   1  0  0
            tnons      0.0000000  0.0000000  0.0000000     0.2500000  0.2500000  0.2500000
                       0.0000000  0.0000000  0.0000000     0.2500000  0.2500000  0.2500000
                       0.0000000  0.0000000  0.0000000     0.2500000  0.2500000  0.2500000
                       0.0000000  0.0000000  0.0000000     0.2500000  0.2500000  0.2500000
                       0.0000000  0.0000000  0.0000000     0.2500000  0.2500000  0.2500000
                       0.0000000  0.0000000  0.0000000     0.2500000  0.2500000  0.2500000
                       0.0000000  0.0000000  0.0000000     0.2500000  0.2500000  0.2500000
                       0.0000000  0.0000000  0.0000000     0.2500000  0.2500000  0.2500000
                       0.0000000  0.0000000  0.0000000     0.2500000  0.2500000  0.2500000
                       0.0000000  0.0000000  0.0000000     0.2500000  0.2500000  0.2500000
                       0.0000000  0.0000000  0.0000000     0.2500000  0.2500000  0.2500000
                       0.0000000  0.0000000  0.0000000     0.2500000  0.2500000  0.2500000
                       0.0000000  0.0000000  0.0000000     0.2500000  0.2500000  0.2500000
                       0.0000000  0.0000000  0.0000000     0.2500000  0.2500000  0.2500000
                       0.0000000  0.0000000  0.0000000     0.2500000  0.2500000  0.2500000
                       0.0000000  0.0000000  0.0000000     0.2500000  0.2500000  0.2500000
                       0.0000000  0.0000000  0.0000000     0.2500000  0.2500000  0.2500000
                       0.0000000  0.0000000  0.0000000     0.2500000  0.2500000  0.2500000
                       0.0000000  0.0000000  0.0000000     0.2500000  0.2500000  0.2500000
                       0.0000000  0.0000000  0.0000000     0.2500000  0.2500000  0.2500000
                       0.0000000  0.0000000  0.0000000     0.2500000  0.2500000  0.2500000
                       0.0000000  0.0000000  0.0000000     0.2500000  0.2500000  0.2500000
                       0.0000000  0.0000000  0.0000000     0.2500000  0.2500000  0.2500000
                       0.0000000  0.0000000  0.0000000     0.2500000  0.2500000  0.2500000
           tolwfr      1.00000000E-12
           tsmear      5.00000000E-03 Hartree
            typat      1  1
           useylm           1
              wtk        0.00600    0.00600    0.00600    0.01200    0.00600    0.00600
                         0.01200    0.00600    0.01200    0.01200    0.00600    0.00600
                         0.01200    0.00600    0.01200    0.01200    0.00600    0.01200
                         0.01200    0.01200    0.00600    0.00600    0.01200    0.00600
                         0.01200    0.01200    0.00600    0.01200    0.01200    0.01200
                         0.00600    0.01200    0.01200    0.01200    0.01200    0.00600
                         0.00600    0.00600    0.01200    0.00600    0.01200    0.01200
                         0.01200    0.00600    0.01200    0.01200    0.01200    0.01200
                         0.00600    0.01200
                       outvars : Printing only first  50 k-points.
           xangst      0.0000000000E+00  0.0000000000E+00  0.0000000000E+00
                       8.9175000000E-01  8.9175000000E-01  8.9175000000E-01
            xcart      0.0000000000E+00  0.0000000000E+00  0.0000000000E+00
                       1.6851632790E+00  1.6851632790E+00  1.6851632790E+00
             xred      0.0000000000E+00  0.0000000000E+00  0.0000000000E+00
                       2.5000000000E-01  2.5000000000E-01  2.5000000000E-01
            znucl        6.00000
 
================================================================================
  

================================================================================

 Suggested references for the acknowledgment of ABINIT usage.

 The users of ABINIT have little formal obligations with respect to the ABINIT group
 (those specified in the GNU General Public License, http://www.gnu.org/copyleft/gpl.txt).
 However, it is common practice in the scientific literature,
 to acknowledge the efforts of people that have made the research possible.
 In this spirit, please find below suggested citations of work written by ABINIT developers,
 corresponding to implementations inside of ABINIT that you have used in the present run.
 Note also that it will be of great value to readers of publications presenting these results,
 to read papers enabling them to understand the theoretical formalism and details
 of the ABINIT implementation.
 For information on why they are suggested, see also https://docs.abinit.org/theory/acknowledgments.
-
- [1] Implementation of the Projector Augmented-Wave Method in the ABINIT code.
- M. Torrent, F. Jollet, F. Bottin, G. Zerah, and X. Gonze Comput. Mat. Science 42, 337, (2008).
- Comment : PAW calculations. Strong suggestion to cite this paper.
- DOI and bibtex : see https://docs.abinit.org/theory/bibliography/#torrent2008
-
- [2] Recent developments in the ABINIT software package.
- Computer Phys. Comm. 205, 106 (2016).
- X.Gonze, F.Jollet, F.Abreu Araujo, D.Adams, B.Amadon, T.Applencourt,
- C.Audouze, J.-M.Beuken, J.Bieder, A.Bokhanchuk, E.Bousquet, F.Bruneval
- D.Caliste, M.Cote, F.Dahm, F.Da Pieve, M.Delaveau, M.Di Gennaro,
- B.Dorado, C.Espejo, G.Geneste, L.Genovese, A.Gerossier, M.Giantomassi,
- Y.Gillet, D.R.Hamann, L.He, G.Jomard, J.Laflamme Janssen, S.Le Roux,
- A.Levitt, A.Lherbier, F.Liu, I.Lukacevic, A.Martin, C.Martins,
- M.J.T.Oliveira, S.Ponce, Y.Pouillon, T.Rangel, G.-M.Rignanese,
- A.H.Romero, B.Rousseau, O.Rubel, A.A.Shukri, M.Stankovski, M.Torrent,
- M.J.Van Setten, B.Van Troeye, M.J.Verstraete, D.Waroquier, J.Wiktor,
- B.Xu, A.Zhou, J.W.Zwanziger.
- Comment : the fourth generic paper describing the ABINIT project.
- Note that a version of this paper, that is not formatted for Computer Phys. Comm. 
- is available at https://www.abinit.org/about/ABINIT16.pdf .
- The licence allows the authors to put it on the Web.
- DOI and bibtex : see https://docs.abinit.org/theory/bibliography/#gonze2016
-
- [3] ABINIT : First-principles approach of materials and nanosystem properties.
- Computer Phys. Comm. 180, 2582-2615 (2009).
- X. Gonze, B. Amadon, P.-M. Anglade, J.-M. Beuken, F. Bottin, P. Boulanger, F. Bruneval,
- D. Caliste, R. Caracas, M. Cote, T. Deutsch, L. Genovese, Ph. Ghosez, M. Giantomassi
- S. Goedecker, D.R. Hamann, P. Hermet, F. Jollet, G. Jomard, S. Leroux, M. Mancini, S. Mazevet,
- M.J.T. Oliveira, G. Onida, Y. Pouillon, T. Rangel, G.-M. Rignanese, D. Sangalli, R. Shaltaf,
- M. Torrent, M.J. Verstraete, G. Zerah, J.W. Zwanziger
- Comment : the third generic paper describing the ABINIT project.
- Note that a version of this paper, that is not formatted for Computer Phys. Comm. 
- is available at https://www.abinit.org/about/ABINIT_CPC_v10.pdf .
- The licence allows the authors to put it on the Web.
- DOI and bibtex : see https://docs.abinit.org/theory/bibliography/#gonze2009
-
- [4] A brief introduction to the ABINIT software package.
- Z. Kristallogr. 220, 558-562 (2005).
- X. Gonze, G.-M. Rignanese, M. Verstraete, J.-M. Beuken, Y. Pouillon, R. Caracas, F. Jollet,
- M. Torrent, G. Zerah, M. Mikami, Ph. Ghosez, M. Veithen, J.-Y. Raty, V. Olevano, F. Bruneval,
- L. Reining, R. Godby, G. Onida, D.R. Hamann, and D.C. Allan.
- Comment : the second generic paper describing the ABINIT project. Note that this paper
- should be cited especially if you are using the GW part of ABINIT, as several authors
- of this part are not in the list of authors of the first or third paper.
- The .pdf of the latter paper is available at https://www.abinit.org/about/zfk_0505-06_558-562.pdf.
- Note that it should not redistributed (Copyright by Oldenburg Wissenshaftverlag,
- the licence allows the authors to put it on the Web).
- DOI and bibtex : see https://docs.abinit.org/theory/bibliography/#gonze2005
-
- And optionally:
-
- [5] First-principles computation of material properties : the ABINIT software project. 
- X. Gonze, J.-M. Beuken, R. Caracas, F. Detraux, M. Fuchs, G.-M. Rignanese, L. Sindic,
- M. Verstraete, G. Zerah, F. Jollet, M. Torrent, A. Roy, M. Mikami, Ph. Ghosez, J.-Y. Raty, D.C. Allan.
- Computational Materials Science 25, 478-492 (2002). http://dx.doi.org/10.1016/S0927-0256(02)00325-7
- Comment : the original paper describing the ABINIT project.
- DOI and bibtex : see https://docs.abinit.org/theory/bibliography/#gonze2002
 Proc.   0 individual time (sec): cpu=          4.7  wall=          5.2
 
 Calculation completed.
.Delivered   1 WARNINGs and   5 COMMENTs to log file.

--- !FinalSummary
program: abinit
version: 8.10.2
start_datetime: Thu Oct 18 16:02:50 2018
end_datetime: Thu Oct 18 16:02:55 2018
overall_cpu_time:           4.7
overall_wall_time:           5.2
exit_requested_by_user: no 
timelimit: 0
pseudos: 
    C   : 016e1f541945a120fe360662732ba284
usepaw: 1
mpi_procs: 1
omp_threads: 1
num_warnings: 1
num_comments: 5
...
