  ABINIT 8.10.2
  
  Give name for formatted input file: 
tdmft_2.in
  Give name for formatted output file:
tdmft_2.out
  Give root name for generic input files:
tdmft_2i
  Give root name for generic output files:
tdmft_2o
  Give root name for generic temporary files:
tdmft_2x
 
--- !COMMENT
src_file: m_dtfil.F90
src_line: 1159
message: |
    Output file tdmft_2.out
     already exists.
...
 
 
--- !COMMENT
src_file: m_dtfil.F90
src_line: 1183
message: |
    Renaming old tdmft_2.out to tdmft_2.out0001
...
 

.Version 8.10.2 of ABINIT 
.(MPI version, prepared for a x86_64_linux_intel18.0 computer) 

.Copyright (C) 1998-2018 ABINIT group . 
 ABINIT comes with ABSOLUTELY NO WARRANTY.
 It is free software, and you are welcome to redistribute it
 under certain conditions (GNU General Public License,
 see ~abinit/COPYING or http://www.gnu.org/copyleft/gpl.txt).

 ABINIT is a project of the Universite Catholique de Louvain,
 Corning Inc. and other collaborators, see ~abinit/doc/developers/contributors.txt .
 Please read https://docs.abinit.org/theory/acknowledgments for suggested
 acknowledgments of the ABINIT effort.
 For more information, see https://www.abinit.org .

.Starting date : Thu 18 Oct 2018.
- ( at 16h46 )
  
 
 ++++++++++++++++++++++++++++++++++++++++++++++++++++++++++++++++++++++++++++++
 
 === Build Information === 
  Version       : 8.10.2
  Build target  : x86_64_linux_intel18.0
  Build date    : 20181015
 
 === Compiler Suite === 
  C compiler       : intel18.0
  C++ compiler     : gnu18.0
  Fortran compiler : intel18.0
  CFLAGS           :  -g -O2 -vec-report0
  CXXFLAGS         :  -g -O2 -mtune=native -march=native
  FCFLAGS          :  -g -extend-source -noaltparam -nofpscomp
  FC_LDFLAGS       :    -static-intel -static-libgcc
 
 === Optimizations === 
  Debug level        : basic
  Optimization level : standard
  Architecture       : intel_xeon
 
 === Multicore === 
  Parallel build : yes
  Parallel I/O   : auto
  openMP support : no
  GPU support    : no
 
 === Connectors / Fallbacks === 
  Connectors on : yes
  Fallbacks on  : yes
  DFT flavor    : none
  FFT flavor    : fftw3
  LINALG flavor : mkl
  MATH flavor   : none
  TIMER flavor  : abinit
  TRIO flavor   : none
 
 === Experimental features === 
  Bindings            : @enable_bindings@
  Exports             : no
  GW double-precision : no
 
 ++++++++++++++++++++++++++++++++++++++++++++++++++++++++++++++++++++++++++++++
 

 ++++++++++++++++++++++++++++++++++++++++++++++++++++++++++++++++++++++++++++++
 Default optimizations:
   -O3


 Optimizations for 43_ptgroups:
   -O0


 ++++++++++++++++++++++++++++++++++++++++++++++++++++++++++++++++++++++++++++++


 ++++++++++++++++++++++++++++++++++++++++++++++++++++++++++++++++++++++++++++++
 CPP options activated during the build:

                  CC_INTEL                   CXX_GNU                  FC_INTEL
 
 HAVE_FC_ALLOCATABLE_DT...             HAVE_FC_ASYNC  HAVE_FC_COMMAND_ARGUMENT
 
      HAVE_FC_COMMAND_LINE        HAVE_FC_CONTIGUOUS           HAVE_FC_CPUTIME
 
              HAVE_FC_EXIT             HAVE_FC_FLUSH             HAVE_FC_GAMMA
 
   HAVE_FC_IEEE_EXCEPTIONS             HAVE_FC_IOMSG     HAVE_FC_ISO_C_BINDING
 
  HAVE_FC_ISO_FORTRAN_2008        HAVE_FC_LONG_LINES        HAVE_FC_MOVE_ALLOC
 
           HAVE_FC_PRIVATE         HAVE_FC_PROTECTED         HAVE_FC_STREAM_IO
 
                  HAVE_FFT            HAVE_FFT_FFTW3              HAVE_FFT_MPI
 
           HAVE_FFT_SERIAL        HAVE_LIBPAW_ABINIT      HAVE_LIBTETRA_ABINIT
 
               HAVE_LINALG        HAVE_LINALG_SERIAL                  HAVE_MPI
 
                 HAVE_MPI2       HAVE_MPI_IALLREDUCE        HAVE_MPI_IALLTOALL
 
       HAVE_MPI_IALLTOALLV        HAVE_MPI_INTEGER16               HAVE_MPI_IO
 
 HAVE_MPI_TYPE_CREATE_S...                HAVE_NUMPY             HAVE_OS_LINUX
 
         HAVE_TIMER_ABINIT              USE_MACROAVE                            
 ++++++++++++++++++++++++++++++++++++++++++++++++++++++++++++++++++++++++++++++

- input  file    -> tdmft_2.in
- output file    -> tdmft_2.out
- root for input  files -> tdmft_2i
- root for output files -> tdmft_2o
 
-instrng: 98 lines of input have been read from file tdmft_2.in
 

 Please give name of formatted atomic psp file
 iofn2 : for atom type 1, psp file is ../../../Psps_for_tests/23v.paw

 Please give name of formatted atomic psp file
 iofn2 : for atom type 2, psp file is ../../../Psps_for_tests/38sr.paw

 Please give name of formatted atomic psp file
 iofn2 : for atom type 3, psp file is ../../../Psps_for_tests/8o.paw
  read the values zionpsp= 13.0 , pspcod=   7 , lmax=   2
 2  2.0070111973                     : shape_type,rshape                        
  
  read the values zionpsp= 10.0 , pspcod=   7 , lmax=   2
 2  1.8136189267                     : shape_type,rshape                        
  
  read the values zionpsp=  6.0 , pspcod=   7 , lmax=   1
 2                                  : shape_type[,lambda,sigma]                 
  
 
 inpspheads: deduce mpsang = 3, n1xccc = 1.
 invars1 : treat image number: 1
 
 symlatt : the Bravais lattice is cP (primitive cubic)
  xred   is defined in input file
 ingeo: takes atomic coordinates from input array xred
 
 symlatt : the Bravais lattice is cP (primitive cubic)
 
 symlatt : the Bravais lattice is cP (primitive cubic)
 symspgr : spgroup= 221  Pm -3 m   (=Oh^1)
 symspgr : optical characteristics = isotropic
 ingeo: angdeg(1:3)=   90.00000000   90.00000000   90.00000000
 
--- !WARNING
src_file: m_invars1.F90
src_line: 1904
message: |
    usedmft and usepawu are both activated 
    This is not an usual calculation:
    usepawu will be put to a value >= 10:
    LDA+U potential and energy will be put to zero
...
 
 invars1 : treat image number: 1
 
 symlatt : the Bravais lattice is cP (primitive cubic)
  xred   is defined in input file
 ingeo: takes atomic coordinates from input array xred
 
 symlatt : the Bravais lattice is cP (primitive cubic)
 
 symlatt : the Bravais lattice is cP (primitive cubic)
 symspgr : spgroup= 221  Pm -3 m   (=Oh^1)
 symspgr : optical characteristics = isotropic
 ingeo: angdeg(1:3)=   90.00000000   90.00000000   90.00000000
 
--- !WARNING
src_file: m_invars1.F90
src_line: 1904
message: |
    usedmft and usepawu are both activated 
    This is not an usual calculation:
    usepawu will be put to a value >= 10:
    LDA+U potential and energy will be put to zero
...
 
 chkneu : initialized the occupation numbers for occopt=    3, spin-unpolarized or antiferromagnetic case :
  2.00  2.00  2.00  2.00  2.00  2.00  2.00  2.00  2.00  2.00  2.00  2.00
  2.00  2.00  2.00  2.00  2.00  2.00  2.00  2.00  1.00  0.00  0.00  0.00
  0.00  0.00  0.00  0.00  0.00  0.00
 chkneu : initialized the occupation numbers for occopt=    3, spin-unpolarized or antiferromagnetic case :
  2.00  2.00  2.00  2.00  2.00  2.00  2.00  2.00  2.00  2.00  2.00  2.00
  2.00  2.00  2.00  2.00  2.00  2.00  2.00  2.00  1.00  0.00  0.00  0.00
  0.00  0.00  0.00  0.00  0.00  0.00
mpi_setup: mkmem  undefined in the input file.Use default mkmem  = nkpt
 mpi_setup: With nkpt_me=10 and mkmem  = 10, ground state wf handled in core.
mpi_setup: mkqmem undefined in the input file.Use default mkqmem = nkpt
 mpi_setup: With nkpt_me=10 and mkqmem = 10, ground state wf handled in core.
mpi_setup: mk1mem undefined in the input file.Use default mk1mem = nkpt
 mpi_setup: With nkpt_me=10 and mk1mem = 10, ground state wf handled in core.
getng is called for the coarse grid:
 For input ecut=  1.200000E+01 best grid ngfft=      24      24      24
       max ecut=  1.348029E+01
 
 ==== FFT mesh ====
  FFT mesh divisions ........................    24   24   24
  Augmented FFT divisions ...................    25   25   24
  FFT algorithm .............................   312
  FFT cache size ............................    16
 getmpw: optimal value of mpw= 770
getng is called for the fine grid:
 Using supplied coarse mesh as initial guess.
 For input ecut=  2.000000E+01 best grid ngfft=      30      30      30
       max ecut=  2.106295E+01
 
 ==== FFT mesh ====
  FFT mesh divisions ........................    30   30   30
  Augmented FFT divisions ...................    31   31   30
  FFT algorithm .............................   312
  FFT cache size ............................    16
mpi_setup: mkmem  undefined in the input file.Use default mkmem  = nkpt
 mpi_setup: With nkpt_me=10 and mkmem  = 10, ground state wf handled in core.
mpi_setup: mkqmem undefined in the input file.Use default mkqmem = nkpt
 mpi_setup: With nkpt_me=10 and mkqmem = 10, ground state wf handled in core.
mpi_setup: mk1mem undefined in the input file.Use default mk1mem = nkpt
 mpi_setup: With nkpt_me=10 and mk1mem = 10, ground state wf handled in core.
getng is called for the coarse grid:
 For input ecut=  1.200000E+01 best grid ngfft=      24      24      24
       max ecut=  1.348029E+01
 
 ==== FFT mesh ====
  FFT mesh divisions ........................    24   24   24
  Augmented FFT divisions ...................    25   25   24
  FFT algorithm .............................   312
  FFT cache size ............................    16
 getmpw: optimal value of mpw= 770
getng is called for the fine grid:
 Using supplied coarse mesh as initial guess.
 For input ecut=  2.000000E+01 best grid ngfft=      30      30      30
       max ecut=  2.106295E+01
 
 ==== FFT mesh ====
  FFT mesh divisions ........................    30   30   30
  Augmented FFT divisions ...................    31   31   30
  FFT algorithm .............................   312
  FFT cache size ............................    16
 
 DATASET    1 : space group Pm -3 m (#221); Bravais cP (primitive cubic)
 
 getdim_nloc : deduce lmnmax  =  22, lnmax  =   8,
                      lmnmaxso=  22, lnmaxso=   8.
memory : analysis of memory needs
================================================================================
 Values of the parameters that define the memory need for DATASET  1.
     intxc =       0    ionmov =       0      iscf =      17    lmnmax =      22
     lnmax =       8     mgfft =      24  mpssoang =       3    mqgrid =    3001
     natom =       5  nloc_mem =       2    nspden =       1   nspinor =       1
    nsppol =       1      nsym =      48    n1xccc =       1    ntypat =       3
    occopt =       3   xclevel =       1
-    mband =          30        mffmem =           1         mkmem =          10
       mpw =         770          nfft =       13824          nkpt =          10
 PAW method is used; the additional fine FFT grid is defined by:
   mgfftf=        30    nfftf =     27000
================================================================================
P This job should need less than                      18.759 Mbytes of memory.
  Rough estimation (10% accuracy) of disk space for files :
_ WF disk file :      3.527 Mbytes ; DEN or POT disk file :      0.208 Mbytes.
================================================================================
 
 Biggest array : pawfgrtab%gylm(gr), with      5.4130 MBytes.
 memana : allocated an array of      5.413 Mbytes, for testing purposes.
 memana: allocated      18.759Mbytes, for testing purposes. 
 The job will continue.
 
 DATASET    2 : space group Pm -3 m (#221); Bravais cP (primitive cubic)
 
 getdim_nloc : deduce lmnmax  =  22, lnmax  =   8,
                      lmnmaxso=  22, lnmaxso=   8.
memory : analysis of memory needs
================================================================================
 Values of the parameters that define the memory need for DATASET  2.
     intxc =       0    ionmov =       0      iscf =      17    lmnmax =      22
     lnmax =       8     mgfft =      24  mpssoang =       3    mqgrid =    3001
     natom =       5  nloc_mem =       2    nspden =       1   nspinor =       1
    nsppol =       1      nsym =      48    n1xccc =       1    ntypat =       3
    occopt =       3   xclevel =       1
-    mband =          30        mffmem =           1         mkmem =          10
       mpw =         770          nfft =       13824          nkpt =          10
 PAW method is used; the additional fine FFT grid is defined by:
   mgfftf=        30    nfftf =     27000
================================================================================
P This job should need less than                      18.759 Mbytes of memory.
  Rough estimation (10% accuracy) of disk space for files :
_ WF disk file :      3.527 Mbytes ; DEN or POT disk file :      0.208 Mbytes.
================================================================================
 
 Biggest array : pawfgrtab%gylm(gr), with      5.4130 MBytes.
 memana : allocated an array of      5.413 Mbytes, for testing purposes.
 memana: allocated      18.759Mbytes, for testing purposes. 
 The job will continue.
--------------------------------------------------------------------------------
------------- Echo of variables that govern the present computation ------------
--------------------------------------------------------------------------------
-
- outvars: echo of selected default values                                      
-   iomode0 =  0 , fftalg0 =312 , wfoptalg0 = 10
-
- outvars: echo of global parameters not present in the input file              
-  max_nthreads =    0
-
 -outvars: echo values of preprocessed input variables --------
            acell      7.2605000000E+00  7.2605000000E+00  7.2605000000E+00 Bohr
              amu      5.09415000E+01  8.76200000E+01  1.59994000E+01
        dmatpuopt           1
        dmftbandf1          0
        dmftbandf2         23
        dmftbandi1          0
        dmftbandi2         21
        dmft_iter1          0
        dmft_iter2          1
        dmft_mxsf1     3.0000000000E-01
        dmft_mxsf2     7.0000000000E-01
        dmft_nwli1          0
        dmft_nwli2     100000
        dmft_nwlo1          0
        dmft_nwlo2        100
        dmft_rslf1          0
        dmft_rslf2          1
             ecut      1.20000000E+01 Hartree
-          fftalg         312
           getwfk          -1
           istwfk        0    0    0    0    0    0    0    0    1    1
              ixc           7
           jdtset        1    2
            jpawu1     0.00000000E+00  0.00000000E+00  0.00000000E+00 Hartree
            jpawu2     2.78682384E-02  0.00000000E+00  0.00000000E+00 Hartree
              kpt     -1.66666667E-01 -3.33333333E-01  0.00000000E+00
                      -1.66666667E-01 -1.66666667E-01  1.66666667E-01
                      -3.33333333E-01  5.00000000E-01  0.00000000E+00
                      -1.66666667E-01  5.00000000E-01  1.66666667E-01
                      -3.33333333E-01 -3.33333333E-01  1.66666667E-01
                      -1.66666667E-01  0.00000000E+00  0.00000000E+00
                       5.00000000E-01  5.00000000E-01  1.66666667E-01
                      -3.33333333E-01  5.00000000E-01  3.33333333E-01
                       5.00000000E-01  0.00000000E+00  0.00000000E+00
                       5.00000000E-01  5.00000000E-01  5.00000000E-01
         kptrlatt        3   -3    3     -3    3    3     -3   -3    3
          kptrlen      3.77266647E+01
            lpawu           2      -1      -1
P           mkmem          10
            natom           5
            nband          30
           ndtset           2
            ngfft          24      24      24
          ngfftdg          30      30      30
             nkpt          10
            nline1          5
            nline2         10
           nnsclo1          5
           nnsclo2         10
            nstep1         30
            nstep2         10
             nsym          48
           ntypat           3
              occ      2.000000  2.000000  2.000000  2.000000  2.000000  2.000000
                       2.000000  2.000000  2.000000  2.000000  2.000000  2.000000
                       2.000000  2.000000  2.000000  2.000000  2.000000  2.000000
                       2.000000  2.000000  1.000000  0.000000  0.000000  0.000000
                       0.000000  0.000000  0.000000  0.000000  0.000000  0.000000
                       2.000000  2.000000  2.000000  2.000000  2.000000  2.000000
                       2.000000  2.000000  2.000000  2.000000  2.000000  2.000000
                       2.000000  2.000000  2.000000  2.000000  2.000000  2.000000
                       2.000000  2.000000  1.000000  0.000000  0.000000  0.000000
                       0.000000  0.000000  0.000000  0.000000  0.000000  0.000000
                       2.000000  2.000000  2.000000  2.000000  2.000000  2.000000
                       2.000000  2.000000  2.000000  2.000000  2.000000  2.000000
                       2.000000  2.000000  2.000000  2.000000  2.000000  2.000000
                       2.000000  2.000000  1.000000  0.000000  0.000000  0.000000
                       0.000000  0.000000  0.000000  0.000000  0.000000  0.000000
                       2.000000  2.000000  2.000000  2.000000  2.000000  2.000000
                       2.000000  2.000000  2.000000  2.000000  2.000000  2.000000
                       2.000000  2.000000  2.000000  2.000000  2.000000  2.000000
                       2.000000  2.000000  1.000000  0.000000  0.000000  0.000000
                       0.000000  0.000000  0.000000  0.000000  0.000000  0.000000
                       2.000000  2.000000  2.000000  2.000000  2.000000  2.000000
                       2.000000  2.000000  2.000000  2.000000  2.000000  2.000000
                       2.000000  2.000000  2.000000  2.000000  2.000000  2.000000
                       2.000000  2.000000  1.000000  0.000000  0.000000  0.000000
                       0.000000  0.000000  0.000000  0.000000  0.000000  0.000000
                       2.000000  2.000000  2.000000  2.000000  2.000000  2.000000
                       2.000000  2.000000  2.000000  2.000000  2.000000  2.000000
                       2.000000  2.000000  2.000000  2.000000  2.000000  2.000000
                       2.000000  2.000000  1.000000  0.000000  0.000000  0.000000
                       0.000000  0.000000  0.000000  0.000000  0.000000  0.000000
                       2.000000  2.000000  2.000000  2.000000  2.000000  2.000000
                       2.000000  2.000000  2.000000  2.000000  2.000000  2.000000
                       2.000000  2.000000  2.000000  2.000000  2.000000  2.000000
                       2.000000  2.000000  1.000000  0.000000  0.000000  0.000000
                       0.000000  0.000000  0.000000  0.000000  0.000000  0.000000
                       2.000000  2.000000  2.000000  2.000000  2.000000  2.000000
                       2.000000  2.000000  2.000000  2.000000  2.000000  2.000000
                       2.000000  2.000000  2.000000  2.000000  2.000000  2.000000
                       2.000000  2.000000  1.000000  0.000000  0.000000  0.000000
                       0.000000  0.000000  0.000000  0.000000  0.000000  0.000000
                       2.000000  2.000000  2.000000  2.000000  2.000000  2.000000
                       2.000000  2.000000  2.000000  2.000000  2.000000  2.000000
                       2.000000  2.000000  2.000000  2.000000  2.000000  2.000000
                       2.000000  2.000000  1.000000  0.000000  0.000000  0.000000
                       0.000000  0.000000  0.000000  0.000000  0.000000  0.000000
                       2.000000  2.000000  2.000000  2.000000  2.000000  2.000000
                       2.000000  2.000000  2.000000  2.000000  2.000000  2.000000
                       2.000000  2.000000  2.000000  2.000000  2.000000  2.000000
                       2.000000  2.000000  1.000000  0.000000  0.000000  0.000000
                       0.000000  0.000000  0.000000  0.000000  0.000000  0.000000
           occopt           3
        optforces1          2
        optforces2          0
        pawecutdg      2.00000000E+01 Hartree
        pawprtvol           3
           prtvol           4
           shiftk      5.00000000E-01  5.00000000E-01  5.00000000E-01
          spgroup         221
           symrel      1  0  0   0  1  0   0  0  1      -1  0  0   0 -1  0   0  0 -1
                      -1  0  0   0  1  0   0  0 -1       1  0  0   0 -1  0   0  0  1
                      -1  0  0   0 -1  0   0  0  1       1  0  0   0  1  0   0  0 -1
                       1  0  0   0 -1  0   0  0 -1      -1  0  0   0  1  0   0  0  1
                       0  1  0   1  0  0   0  0  1       0 -1  0  -1  0  0   0  0 -1
                       0 -1  0   1  0  0   0  0 -1       0  1  0  -1  0  0   0  0  1
                       0 -1  0  -1  0  0   0  0  1       0  1  0   1  0  0   0  0 -1
                       0  1  0  -1  0  0   0  0 -1       0 -1  0   1  0  0   0  0  1
                       0  0  1   1  0  0   0  1  0       0  0 -1  -1  0  0   0 -1  0
                       0  0 -1   1  0  0   0 -1  0       0  0  1  -1  0  0   0  1  0
                       0  0 -1  -1  0  0   0  1  0       0  0  1   1  0  0   0 -1  0
                       0  0  1  -1  0  0   0 -1  0       0  0 -1   1  0  0   0  1  0
                       1  0  0   0  0  1   0  1  0      -1  0  0   0  0 -1   0 -1  0
                      -1  0  0   0  0  1   0 -1  0       1  0  0   0  0 -1   0  1  0
                      -1  0  0   0  0 -1   0  1  0       1  0  0   0  0  1   0 -1  0
                       1  0  0   0  0 -1   0 -1  0      -1  0  0   0  0  1   0  1  0
                       0  1  0   0  0  1   1  0  0       0 -1  0   0  0 -1  -1  0  0
                       0 -1  0   0  0  1  -1  0  0       0  1  0   0  0 -1   1  0  0
                       0 -1  0   0  0 -1   1  0  0       0  1  0   0  0  1  -1  0  0
                       0  1  0   0  0 -1  -1  0  0       0 -1  0   0  0  1   1  0  0
                       0  0  1   0  1  0   1  0  0       0  0 -1   0 -1  0  -1  0  0
                       0  0 -1   0  1  0  -1  0  0       0  0  1   0 -1  0   1  0  0
                       0  0 -1   0 -1  0   1  0  0       0  0  1   0  1  0  -1  0  0
                       0  0  1   0 -1  0  -1  0  0       0  0 -1   0  1  0   1  0  0
           tolvrs      1.00000000E-07
           tsmear      3.80017850E-03 Hartree
            typat      1  2  3  3  3
            upawu1     0.00000000E+00  0.00000000E+00  0.00000000E+00 Hartree
            upawu2     1.15147886E-01  0.00000000E+00  0.00000000E+00 Hartree
          usedmft1          0
          usedmft2          1
          usepawu1          1
          usepawu2         10
           useylm           1
              wtk        0.22222    0.07407    0.11111    0.11111    0.22222    0.05556
                         0.05556    0.11111    0.02778    0.00926
           xangst      0.0000000000E+00  0.0000000000E+00  0.0000000000E+00
                       1.9210455615E+00  1.9210455615E+00  1.9210455615E+00
                       1.9210455615E+00  0.0000000000E+00  0.0000000000E+00
                       0.0000000000E+00  1.9210455615E+00  0.0000000000E+00
                       0.0000000000E+00  0.0000000000E+00  1.9210455615E+00
            xcart      0.0000000000E+00  0.0000000000E+00  0.0000000000E+00
                       3.6302500000E+00  3.6302500000E+00  3.6302500000E+00
                       3.6302500000E+00  0.0000000000E+00  0.0000000000E+00
                       0.0000000000E+00  3.6302500000E+00  0.0000000000E+00
                       0.0000000000E+00  0.0000000000E+00  3.6302500000E+00
             xred      0.0000000000E+00  0.0000000000E+00  0.0000000000E+00
                       5.0000000000E-01  5.0000000000E-01  5.0000000000E-01
                       5.0000000000E-01  0.0000000000E+00  0.0000000000E+00
                       0.0000000000E+00  5.0000000000E-01  0.0000000000E+00
                       0.0000000000E+00  0.0000000000E+00  5.0000000000E-01
            znucl       23.00000   38.00000    8.00000
 
================================================================================
 
 chkinp: Checking input parameters for consistency, jdtset=   1.
 
 chkinp: Checking input parameters for consistency, jdtset=   2.
 DATA TYPE INFORMATION: 
 REAL:      Data type name: REAL(DP) 
            Kind value:      8
            Precision:      15
            Smallest nonnegligible quantity relative to 1:  0.22204460E-15
            Smallest positive number:                       0.22250739-307
            Largest representable number:                   0.17976931+309
 INTEGER:   Data type name: INTEGER(default) 
            Kind value: 4
            Bit size:   32
            Largest representable number: 2147483647
 LOGICAL:   Data type name: LOGICAL 
            Kind value: 4
 CHARACTER: Data type name: CHARACTER             Kind value: 1

  ==== OpenMP parallelism is OFF ====
 
  ==== Using MPI-2 specifications ==== 
  MPI-IO support is ON
  xmpi_tag_ub ................   2147483647
  xmpi_bsize_ch ..............            1
  xmpi_bsize_int .............            4
  xmpi_bsize_sp ..............            4
  xmpi_bsize_dp ..............            8
  xmpi_bsize_spc .............            8
  xmpi_bsize_dpc .............           16
  xmpio_bsize_frm ............            4
  xmpi_address_kind ..........            8
  xmpi_offset_kind ...........            8
  MPI_WTICK ..................   1.000000000000000E-006
 
================================================================================
== DATASET  1 ==================================================================
-   nproc =    1
 
 
--- !COMMENT
src_file: m_xgScalapack.F90
src_line: 251
message: |
    xgScalapack in auto mode
...
 
 
 getdim_nloc : deduce lmnmax  =  22, lnmax  =   8,
                      lmnmaxso=  22, lnmaxso=   8.
 Exchange-correlation functional for the present dataset will be:
  LDA: Perdew-Wang 92 LSD fit to Ceperley-Alder data - ixc=7
 Citation for XC functional:
  J.P.Perdew and Y.Wang, PRB 45, 13244 (1992)
 
 Unit cell volume ucvol=  3.8273624E+02 bohr^3
 Angles (23,13,12)=  9.00000000E+01  9.00000000E+01  9.00000000E+01 degrees
 
 Coarse grid specifications (used for wave-functions):
 
 getcut: wavevector=  0.0000  0.0000  0.0000  ngfft=  24  24  24
         ecut(hartree)=     12.000   => boxcut(ratio)=   2.11977
 
 Fine grid specifications (used for densities):
 
 getcut: wavevector=  0.0000  0.0000  0.0000  ngfft=  30  30  30
         ecut(hartree)=     20.000   => boxcut(ratio)=   2.05246
- pspini: atom type   1  psp file is ../../../Psps_for_tests/23v.paw
- pspatm: opening atomic psp file    ../../../Psps_for_tests/23v.paw
- Paw atomic data for element V - Generated by AtomPAW + AtomPAW2Abinit v3.2.0
- 23.00000  13.00000  20070917                znucl, zion, pspdat
    7    7    2    0      1505   0.00000      pspcod,pspxc,lmax,lloc,mmax,r2well
 Pseudopotential format is: paw3
 basis_size (lnmax)=  8 (lmn_size= 22), orbitals=   0   0   0   1   1   1   2   2
 Spheres core radius: rc_sph= 2.35000000
 3 radial meshes are used:
  - mesh 1: r(i)=AA*[exp(BB*(i-1))-1], size=1505 , AA= 0.26380E-03 BB= 0.60673E-02
  - mesh 2: r(i)=AA*[exp(BB*(i-1))-1], size=1500 , AA= 0.26380E-03 BB= 0.60673E-02
  - mesh 3: r(i)=AA*[exp(BB*(i-1))-1], size=1738 , AA= 0.26380E-03 BB= 0.60673E-02
 Shapefunction is SIN type: shapef(r)=[sin(pi*r/rshp)/(pi*r/rshp)]**2
 Radius for shape functions =  2.00701120
 Radial grid used for partial waves is grid 1
 Radial grid used for projectors is grid  2
 Radial grid used for (t)core density is grid 1
 Radial grid used for Vloc is grid 3
 Compensation charge density is taken into account in XC energy/potential
 beta integral value:      -0.288422E+02
 pspatm: atomic psp has been read  and splines computed
 
- pspini: atom type   2  psp file is ../../../Psps_for_tests/38sr.paw
- pspatm: opening atomic psp file    ../../../Psps_for_tests/38sr.paw
- Paw atomic data for element Sr - Generated by AtomPAW + AtomPAW2Abinit v3.2.0
- 38.00000  10.00000  20070917                znucl, zion, pspdat
    7    7    2    0      1068   0.00000      pspcod,pspxc,lmax,lloc,mmax,r2well
 Pseudopotential format is: paw3
 basis_size (lnmax)=  6 (lmn_size= 18), orbitals=   0   0   1   1   2   2
 Spheres core radius: rc_sph= 1.92519986
 4 radial meshes are used:
  - mesh 1: r(i)=AA*[exp(BB*(i-1))-1], size=1068 , AA= 0.22443E-03 BB= 0.85283E-02
  - mesh 2: r(i)=AA*[exp(BB*(i-1))-1], size=1063 , AA= 0.22443E-03 BB= 0.85283E-02
  - mesh 3: r(i)=AA*[exp(BB*(i-1))-1], size=1134 , AA= 0.22443E-03 BB= 0.85283E-02
  - mesh 4: r(i)=AA*[exp(BB*(i-1))-1], size=1256 , AA= 0.22443E-03 BB= 0.85283E-02
 Shapefunction is SIN type: shapef(r)=[sin(pi*r/rshp)/(pi*r/rshp)]**2
 Radius for shape functions =  1.81361893
 Radial grid used for partial waves is grid 1
 Radial grid used for projectors is grid  2
 Radial grid used for (t)core density is grid 3
 Radial grid used for Vloc is grid 4
 Compensation charge density is taken into account in XC energy/potential
 beta integral value:      -0.187107E+02
 pspatm: atomic psp has been read  and splines computed
 
- pspini: atom type   3  psp file is ../../../Psps_for_tests/8o.paw
- pspatm: opening atomic psp file    ../../../Psps_for_tests/8o.paw
- Paw atomic data for element O - Generated by AtomPAW (N. Holzwarth)
-  8.00000   6.00000  20040423                znucl, zion, pspdat
    7    7    1    0       350   0.00000      pspcod,pspxc,lmax,lloc,mmax,r2well
 Pseudopotential format is: paw2
 basis_size (lnmax)=  4 (lmn_size=  8), orbitals=   0   0   1   1
 Spheres core radius: rc_sph= 1.41000000
 2 radial meshes are used:
  - mesh 1: r(i)=AA*exp(BB*(i-2)), size= 350 , AA= 0.72362E-05 BB= 0.35000E-01
  - mesh 2: r(i)=step*(i-1), size= 566 , step= 0.25000E-02
 Shapefunction is SIN type: shapef(r)=[sin(pi*r/rshp)/(pi*r/rshp)]**2
 Radius for shape functions = sphere core radius
 Radial grid used for partial waves is grid 1
 Radial grid used for projectors is grid  2
 Radial grid used for (t)core density is grid 1
 Radial grid used for Vloc is grid 1
 Compensation charge density is taken into account in XC energy/potential
 beta integral value:      -0.916768E+01
 pspatm: atomic psp has been read  and splines computed
 
   2.50191820E+03                                ecore*ucvol(ha*bohr**3)
 ==== Info on pseudopotentials ====
  PAW calculation
  Number of pseudopotentials ..    3
  Number of types of atoms   ..    3
  Scalar calculation (no spin-orbit term)
  Nonlocal part applied using real spherical harmonics
  Max number of non-local projectors over l and type   3
  Highest angular momentum +1 .......   3
  Max number of (l,n)   components ..   8
  Max number of (l,m,n) components ..  22
 
 Pseudo-Core Charge Info: 
   Number of radial points for pseudo-core charge ..    1
   XC core-correction treatment (optnlxccc) ........    1
   Radius for pseudo-core charge for each type ..... 
 
  - Atom type    1 has pseudo-core radius ..  2.4224
  - Atom type    2 has pseudo-core radius ..  3.5275
  - Atom type    3 has pseudo-core radius ..  1.4100
 
 Info on the Q-grid used for form factors in spline form: 
   Number of q-points for radial functions ffspl ..   3001
   Number of q-points for vlspl ...................   3001
   vloc is computed in Reciprocal Space
 
  XC functional for type 1 is 7
  XC functional for type 2 is 7
  XC functional for type 3 is 7
  Pseudo number              1  read from ../../../Psps_for_tests/23v.paw
  Format or code             7
  Generation date     20070917
  Content of first line: 
 Paw atomic data for element V - Generated by AtomPAW + AtomPAW2Abinit v3.2.0
  Pseudo number              2  read from ../../../Psps_for_tests/38sr.paw
  Format or code             7
  Generation date     20070917
  Content of first line: 
 Paw atomic data for element Sr - Generated by AtomPAW + AtomPAW2Abinit v3.2.0
  Pseudo number              3  read from ../../../Psps_for_tests/8o.paw
  Format or code             7
  Generation date     20040423
  Content of first line: 
 Paw atomic data for element O - Generated by AtomPAW (N. Holzwarth)
 
 wfconv:    30 bands initialized randomly with npw=   758, for ikpt=     1
 wfconv:    30 bands initialized randomly with npw=   748, for ikpt=     2
 wfconv:    30 bands initialized randomly with npw=   770, for ikpt=     3
 wfconv:    30 bands initialized randomly with npw=   768, for ikpt=     4
 wfconv:    30 bands initialized randomly with npw=   756, for ikpt=     5
 wfconv:    30 bands initialized randomly with npw=   759, for ikpt=     6
 wfconv:    30 bands initialized randomly with npw=   760, for ikpt=     7
 wfconv:    30 bands initialized randomly with npw=   748, for ikpt=     8
 wfconv:    30 bands initialized randomly with npw=   756, for ikpt=     9
 wfconv:    30 bands initialized randomly with npw=   720, for ikpt=    10
_setup2: Arith. and geom. avg. npw (full set) are     757.907     757.867
 
 PAW TEST:
 ==== setsym_ylm: rotation matrices in the basis ============
 ====              of real spherical harmonics    ============
  > Number of symmetries (nsym)=  48
   >For symmetry  1 ( 1 0 0 0 1 0 0 0 1)
    Rotation matrice for l=1:
    1.000    0.000    0.000
    0.000    1.000    0.000
    0.000    0.000    1.000
    Rotation matrice for l=2:
    1.000    0.000    0.000    0.000    0.000
    0.000    1.000    0.000    0.000    0.000
    0.000    0.000    1.000    0.000    0.000
    0.000    0.000    0.000    1.000    0.000
    0.000    0.000    0.000    0.000    1.000
   >For symmetry  2 (-1 0 0 0-1 0 0 0-1)
    Rotation matrice for l=1:
   -1.000    0.000    0.000
    0.000   -1.000    0.000
    0.000    0.000   -1.000
    Rotation matrice for l=2:
    1.000    0.000    0.000    0.000    0.000
    0.000    1.000    0.000    0.000    0.000
    0.000    0.000    1.000    0.000    0.000
    0.000    0.000    0.000    1.000    0.000
    0.000    0.000    0.000    0.000    1.000
   >For symmetry  3 (-1 0 0 0 1 0 0 0-1)
    Rotation matrice for l=1:
    1.000    0.000    0.000
    0.000   -1.000    0.000
    0.000    0.000   -1.000
    Rotation matrice for l=2:
   -1.000    0.000    0.000    0.000    0.000
    0.000   -1.000    0.000    0.000    0.000
    0.000    0.000    1.000    0.000    0.000
    0.000    0.000    0.000    1.000    0.000
    0.000    0.000    0.000    0.000    1.000
   >For symmetry  4 ( 1 0 0 0-1 0 0 0 1)
    Rotation matrice for l=1:
   -1.000    0.000    0.000
    0.000    1.000    0.000
    0.000    0.000    1.000
    Rotation matrice for l=2:
   -1.000    0.000    0.000    0.000    0.000
    0.000   -1.000    0.000    0.000    0.000
    0.000    0.000    1.000    0.000    0.000
    0.000    0.000    0.000    1.000    0.000
    0.000    0.000    0.000    0.000    1.000
   >For symmetry  5 (-1 0 0 0-1 0 0 0 1)
    Rotation matrice for l=1:
   -1.000    0.000    0.000
    0.000    1.000    0.000
    0.000    0.000   -1.000
    Rotation matrice for l=2:
    1.000    0.000    0.000    0.000    0.000
    0.000   -1.000    0.000    0.000    0.000
    0.000    0.000    1.000    0.000    0.000
    0.000    0.000    0.000   -1.000    0.000
    0.000    0.000    0.000    0.000    1.000
   >For symmetry  6 ( 1 0 0 0 1 0 0 0-1)
    Rotation matrice for l=1:
    1.000    0.000    0.000
    0.000   -1.000    0.000
    0.000    0.000    1.000
    Rotation matrice for l=2:
    1.000    0.000    0.000    0.000    0.000
    0.000   -1.000    0.000    0.000    0.000
    0.000    0.000    1.000    0.000    0.000
    0.000    0.000    0.000   -1.000    0.000
    0.000    0.000    0.000    0.000    1.000
   >For symmetry  7 ( 1 0 0 0-1 0 0 0-1)
    Rotation matrice for l=1:
   -1.000    0.000    0.000
    0.000   -1.000    0.000
    0.000    0.000    1.000
    Rotation matrice for l=2:
   -1.000    0.000    0.000    0.000    0.000
    0.000    1.000    0.000    0.000    0.000
    0.000    0.000    1.000    0.000    0.000
    0.000    0.000    0.000   -1.000    0.000
    0.000    0.000    0.000    0.000    1.000
   >For symmetry  8 (-1 0 0 0 1 0 0 0 1)
    Rotation matrice for l=1:
    1.000    0.000    0.000
    0.000    1.000    0.000
    0.000    0.000   -1.000
    Rotation matrice for l=2:
   -1.000    0.000    0.000    0.000    0.000
    0.000    1.000    0.000    0.000    0.000
    0.000    0.000    1.000    0.000    0.000
    0.000    0.000    0.000   -1.000    0.000
    0.000    0.000    0.000    0.000    1.000
   >For symmetry  9 ( 0 1 0 1 0 0 0 0 1)
    Rotation matrice for l=1:
    0.000    0.000    1.000
    0.000    1.000    0.000
    1.000    0.000    0.000
    Rotation matrice for l=2:
    1.000    0.000    0.000    0.000    0.000
    0.000    0.000    0.000    1.000    0.000
    0.000    0.000    1.000    0.000    0.000
    0.000    1.000    0.000    0.000    0.000
    0.000    0.000    0.000    0.000   -1.000
   >For symmetry 10 ( 0-1 0-1 0 0 0 0-1)
    Rotation matrice for l=1:
    0.000    0.000   -1.000
    0.000   -1.000    0.000
   -1.000    0.000    0.000
    Rotation matrice for l=2:
    1.000    0.000    0.000    0.000    0.000
    0.000    0.000    0.000    1.000    0.000
    0.000    0.000    1.000    0.000    0.000
    0.000    1.000    0.000    0.000    0.000
    0.000    0.000    0.000    0.000   -1.000
   >For symmetry 11 ( 0-1 0 1 0 0 0 0-1)
    Rotation matrice for l=1:
    0.000    0.000    1.000
    0.000   -1.000    0.000
   -1.000    0.000    0.000
    Rotation matrice for l=2:
   -1.000    0.000    0.000    0.000    0.000
    0.000    0.000    0.000   -1.000    0.000
    0.000    0.000    1.000    0.000    0.000
    0.000    1.000    0.000    0.000    0.000
    0.000    0.000    0.000    0.000   -1.000
   >For symmetry 12 ( 0 1 0-1 0 0 0 0 1)
    Rotation matrice for l=1:
    0.000    0.000   -1.000
    0.000    1.000    0.000
    1.000    0.000    0.000
    Rotation matrice for l=2:
   -1.000    0.000    0.000    0.000    0.000
    0.000    0.000    0.000   -1.000    0.000
    0.000    0.000    1.000    0.000    0.000
    0.000    1.000    0.000    0.000    0.000
    0.000    0.000    0.000    0.000   -1.000
   >For symmetry 13 ( 0-1 0-1 0 0 0 0 1)
    Rotation matrice for l=1:
    0.000    0.000   -1.000
    0.000    1.000    0.000
   -1.000    0.000    0.000
    Rotation matrice for l=2:
    1.000    0.000    0.000    0.000    0.000
    0.000    0.000    0.000   -1.000    0.000
    0.000    0.000    1.000    0.000    0.000
    0.000   -1.000    0.000    0.000    0.000
    0.000    0.000    0.000    0.000   -1.000
   >For symmetry 14 ( 0 1 0 1 0 0 0 0-1)
    Rotation matrice for l=1:
    0.000    0.000    1.000
    0.000   -1.000    0.000
    1.000    0.000    0.000
    Rotation matrice for l=2:
    1.000    0.000    0.000    0.000    0.000
    0.000    0.000    0.000   -1.000    0.000
    0.000    0.000    1.000    0.000    0.000
    0.000   -1.000    0.000    0.000    0.000
    0.000    0.000    0.000    0.000   -1.000
   >For symmetry 15 ( 0 1 0-1 0 0 0 0-1)
    Rotation matrice for l=1:
    0.000    0.000   -1.000
    0.000   -1.000    0.000
    1.000    0.000    0.000
    Rotation matrice for l=2:
   -1.000    0.000    0.000    0.000    0.000
    0.000    0.000    0.000    1.000    0.000
    0.000    0.000    1.000    0.000    0.000
    0.000   -1.000    0.000    0.000    0.000
    0.000    0.000    0.000    0.000   -1.000
   >For symmetry 16 ( 0-1 0 1 0 0 0 0 1)
    Rotation matrice for l=1:
    0.000    0.000    1.000
    0.000    1.000    0.000
   -1.000    0.000    0.000
    Rotation matrice for l=2:
   -1.000    0.000    0.000    0.000    0.000
    0.000    0.000    0.000    1.000    0.000
    0.000    0.000    1.000    0.000    0.000
    0.000   -1.000    0.000    0.000    0.000
    0.000    0.000    0.000    0.000   -1.000
   >For symmetry 17 ( 0 0 1 1 0 0 0 1 0)
    Rotation matrice for l=1:
    0.000    0.000    1.000
    1.000    0.000    0.000
    0.000    1.000    0.000
    Rotation matrice for l=2:
    0.000    0.000    0.000    1.000    0.000
    1.000    0.000    0.000    0.000    0.000
    0.000    0.000   -0.500    0.000   -0.866
    0.000    1.000    0.000    0.000    0.000
    0.000    0.000    0.866    0.000   -0.500
   >For symmetry 18 ( 0 0-1-1 0 0 0-1 0)
    Rotation matrice for l=1:
    0.000    0.000   -1.000
   -1.000    0.000    0.000
    0.000   -1.000    0.000
    Rotation matrice for l=2:
    0.000    0.000    0.000    1.000    0.000
    1.000    0.000    0.000    0.000    0.000
    0.000    0.000   -0.500    0.000   -0.866
    0.000    1.000    0.000    0.000    0.000
    0.000    0.000    0.866    0.000   -0.500
   >For symmetry 19 ( 0 0-1 1 0 0 0-1 0)
    Rotation matrice for l=1:
    0.000    0.000    1.000
   -1.000    0.000    0.000
    0.000   -1.000    0.000
    Rotation matrice for l=2:
    0.000    0.000    0.000   -1.000    0.000
   -1.000    0.000    0.000    0.000    0.000
    0.000    0.000   -0.500    0.000   -0.866
    0.000    1.000    0.000    0.000    0.000
    0.000    0.000    0.866    0.000   -0.500
   >For symmetry 20 ( 0 0 1-1 0 0 0 1 0)
    Rotation matrice for l=1:
    0.000    0.000   -1.000
    1.000    0.000    0.000
    0.000    1.000    0.000
    Rotation matrice for l=2:
    0.000    0.000    0.000   -1.000    0.000
   -1.000    0.000    0.000    0.000    0.000
    0.000    0.000   -0.500    0.000   -0.866
    0.000    1.000    0.000    0.000    0.000
    0.000    0.000    0.866    0.000   -0.500
   >For symmetry 21 ( 0 0-1-1 0 0 0 1 0)
    Rotation matrice for l=1:
    0.000    0.000   -1.000
    1.000    0.000    0.000
    0.000   -1.000    0.000
    Rotation matrice for l=2:
    0.000    0.000    0.000    1.000    0.000
   -1.000    0.000    0.000   -0.000    0.000
    0.000    0.000   -0.500    0.000   -0.866
    0.000   -1.000    0.000    0.000    0.000
    0.000    0.000    0.866    0.000   -0.500
   >For symmetry 22 ( 0 0 1 1 0 0 0-1 0)
    Rotation matrice for l=1:
    0.000    0.000    1.000
   -1.000    0.000    0.000
    0.000    1.000    0.000
    Rotation matrice for l=2:
    0.000    0.000    0.000    1.000    0.000
   -1.000    0.000    0.000   -0.000    0.000
    0.000    0.000   -0.500    0.000   -0.866
    0.000   -1.000    0.000    0.000    0.000
    0.000    0.000    0.866    0.000   -0.500
   >For symmetry 23 ( 0 0 1-1 0 0 0-1 0)
    Rotation matrice for l=1:
    0.000    0.000   -1.000
   -1.000    0.000    0.000
    0.000    1.000    0.000
    Rotation matrice for l=2:
    0.000    0.000    0.000   -1.000    0.000
    1.000    0.000    0.000   -0.000    0.000
    0.000    0.000   -0.500    0.000   -0.866
    0.000   -1.000    0.000    0.000    0.000
    0.000    0.000    0.866    0.000   -0.500
   >For symmetry 24 ( 0 0-1 1 0 0 0 1 0)
    Rotation matrice for l=1:
    0.000    0.000    1.000
    1.000    0.000    0.000
    0.000   -1.000    0.000
    Rotation matrice for l=2:
    0.000    0.000    0.000   -1.000    0.000
    1.000    0.000    0.000   -0.000    0.000
    0.000    0.000   -0.500    0.000   -0.866
    0.000   -1.000    0.000    0.000    0.000
    0.000    0.000    0.866    0.000   -0.500
   >For symmetry 25 ( 1 0 0 0 0 1 0 1 0)
    Rotation matrice for l=1:
    0.000    1.000    0.000
    1.000    0.000    0.000
    0.000    0.000    1.000
    Rotation matrice for l=2:
    0.000    0.000    0.000    1.000    0.000
    0.000    1.000    0.000    0.000    0.000
    0.000    0.000   -0.500    0.000   -0.866
    1.000    0.000    0.000   -0.000    0.000
    0.000    0.000   -0.866    0.000    0.500
   >For symmetry 26 (-1 0 0 0 0-1 0-1 0)
    Rotation matrice for l=1:
    0.000   -1.000    0.000
   -1.000    0.000    0.000
    0.000    0.000   -1.000
    Rotation matrice for l=2:
    0.000    0.000    0.000    1.000    0.000
    0.000    1.000    0.000    0.000    0.000
    0.000    0.000   -0.500    0.000   -0.866
    1.000    0.000    0.000   -0.000    0.000
    0.000    0.000   -0.866    0.000    0.500
   >For symmetry 27 (-1 0 0 0 0 1 0-1 0)
    Rotation matrice for l=1:
    0.000    1.000    0.000
   -1.000    0.000    0.000
    0.000    0.000   -1.000
    Rotation matrice for l=2:
    0.000    0.000    0.000   -1.000    0.000
    0.000   -1.000    0.000    0.000    0.000
    0.000    0.000   -0.500    0.000   -0.866
    1.000    0.000    0.000    0.000    0.000
    0.000    0.000   -0.866    0.000    0.500
   >For symmetry 28 ( 1 0 0 0 0-1 0 1 0)
    Rotation matrice for l=1:
    0.000   -1.000    0.000
    1.000    0.000    0.000
    0.000    0.000    1.000
    Rotation matrice for l=2:
    0.000    0.000    0.000   -1.000    0.000
    0.000   -1.000    0.000    0.000    0.000
    0.000    0.000   -0.500    0.000   -0.866
    1.000    0.000    0.000    0.000    0.000
    0.000    0.000   -0.866    0.000    0.500
   >For symmetry 29 (-1 0 0 0 0-1 0 1 0)
    Rotation matrice for l=1:
    0.000   -1.000    0.000
    1.000    0.000    0.000
    0.000    0.000   -1.000
    Rotation matrice for l=2:
    0.000    0.000    0.000    1.000    0.000
    0.000   -1.000    0.000    0.000    0.000
    0.000    0.000   -0.500    0.000   -0.866
   -1.000    0.000    0.000    0.000    0.000
    0.000    0.000   -0.866    0.000    0.500
   >For symmetry 30 ( 1 0 0 0 0 1 0-1 0)
    Rotation matrice for l=1:
    0.000    1.000    0.000
   -1.000    0.000    0.000
    0.000    0.000    1.000
    Rotation matrice for l=2:
    0.000    0.000    0.000    1.000    0.000
    0.000   -1.000    0.000    0.000    0.000
    0.000    0.000   -0.500    0.000   -0.866
   -1.000    0.000    0.000    0.000    0.000
    0.000    0.000   -0.866    0.000    0.500
   >For symmetry 31 ( 1 0 0 0 0-1 0-1 0)
    Rotation matrice for l=1:
    0.000   -1.000    0.000
   -1.000    0.000    0.000
    0.000    0.000    1.000
    Rotation matrice for l=2:
    0.000    0.000    0.000   -1.000    0.000
    0.000    1.000    0.000    0.000    0.000
    0.000    0.000   -0.500    0.000   -0.866
   -1.000    0.000    0.000   -0.000    0.000
    0.000    0.000   -0.866    0.000    0.500
   >For symmetry 32 (-1 0 0 0 0 1 0 1 0)
    Rotation matrice for l=1:
    0.000    1.000    0.000
    1.000    0.000    0.000
    0.000    0.000   -1.000
    Rotation matrice for l=2:
    0.000    0.000    0.000   -1.000    0.000
    0.000    1.000    0.000    0.000    0.000
    0.000    0.000   -0.500    0.000   -0.866
   -1.000    0.000    0.000   -0.000    0.000
    0.000    0.000   -0.866    0.000    0.500
   >For symmetry 33 ( 0 1 0 0 0 1 1 0 0)
    Rotation matrice for l=1:
    0.000    1.000    0.000
    0.000    0.000    1.000
    1.000    0.000    0.000
    Rotation matrice for l=2:
    0.000    1.000    0.000    0.000    0.000
    0.000    0.000    0.000    1.000    0.000
    0.000    0.000   -0.500    0.000    0.866
    1.000    0.000    0.000    0.000    0.000
    0.000    0.000   -0.866    0.000   -0.500
   >For symmetry 34 ( 0-1 0 0 0-1-1 0 0)
    Rotation matrice for l=1:
    0.000   -1.000    0.000
    0.000    0.000   -1.000
   -1.000    0.000    0.000
    Rotation matrice for l=2:
    0.000    1.000    0.000    0.000    0.000
    0.000    0.000    0.000    1.000    0.000
    0.000    0.000   -0.500    0.000    0.866
    1.000    0.000    0.000    0.000    0.000
    0.000    0.000   -0.866    0.000   -0.500
   >For symmetry 35 ( 0-1 0 0 0 1-1 0 0)
    Rotation matrice for l=1:
    0.000    1.000    0.000
    0.000    0.000   -1.000
   -1.000    0.000    0.000
    Rotation matrice for l=2:
    0.000   -1.000    0.000    0.000    0.000
    0.000    0.000    0.000   -1.000    0.000
    0.000    0.000   -0.500    0.000    0.866
    1.000   -0.000    0.000    0.000    0.000
    0.000    0.000   -0.866    0.000   -0.500
   >For symmetry 36 ( 0 1 0 0 0-1 1 0 0)
    Rotation matrice for l=1:
    0.000   -1.000    0.000
    0.000    0.000    1.000
    1.000    0.000    0.000
    Rotation matrice for l=2:
    0.000   -1.000    0.000    0.000    0.000
    0.000    0.000    0.000   -1.000    0.000
    0.000    0.000   -0.500    0.000    0.866
    1.000   -0.000    0.000    0.000    0.000
    0.000    0.000   -0.866    0.000   -0.500
   >For symmetry 37 ( 0-1 0 0 0-1 1 0 0)
    Rotation matrice for l=1:
    0.000   -1.000    0.000
    0.000    0.000    1.000
   -1.000    0.000    0.000
    Rotation matrice for l=2:
    0.000    1.000    0.000    0.000    0.000
    0.000    0.000    0.000   -1.000    0.000
    0.000    0.000   -0.500    0.000    0.866
   -1.000   -0.000    0.000    0.000    0.000
    0.000    0.000   -0.866    0.000   -0.500
   >For symmetry 38 ( 0 1 0 0 0 1-1 0 0)
    Rotation matrice for l=1:
    0.000    1.000    0.000
    0.000    0.000   -1.000
    1.000    0.000    0.000
    Rotation matrice for l=2:
    0.000    1.000    0.000    0.000    0.000
    0.000    0.000    0.000   -1.000    0.000
    0.000    0.000   -0.500    0.000    0.866
   -1.000   -0.000    0.000    0.000    0.000
    0.000    0.000   -0.866    0.000   -0.500
   >For symmetry 39 ( 0 1 0 0 0-1-1 0 0)
    Rotation matrice for l=1:
    0.000   -1.000    0.000
    0.000    0.000   -1.000
    1.000    0.000    0.000
    Rotation matrice for l=2:
    0.000   -1.000    0.000    0.000    0.000
    0.000    0.000    0.000    1.000    0.000
    0.000    0.000   -0.500    0.000    0.866
   -1.000    0.000    0.000    0.000    0.000
    0.000    0.000   -0.866    0.000   -0.500
   >For symmetry 40 ( 0-1 0 0 0 1 1 0 0)
    Rotation matrice for l=1:
    0.000    1.000    0.000
    0.000    0.000    1.000
   -1.000    0.000    0.000
    Rotation matrice for l=2:
    0.000   -1.000    0.000    0.000    0.000
    0.000    0.000    0.000    1.000    0.000
    0.000    0.000   -0.500    0.000    0.866
   -1.000    0.000    0.000    0.000    0.000
    0.000    0.000   -0.866    0.000   -0.500
   >For symmetry 41 ( 0 0 1 0 1 0 1 0 0)
    Rotation matrice for l=1:
    1.000    0.000    0.000
    0.000    0.000    1.000
    0.000    1.000    0.000
    Rotation matrice for l=2:
    0.000    1.000    0.000    0.000    0.000
    1.000   -0.000    0.000    0.000    0.000
    0.000    0.000   -0.500    0.000    0.866
    0.000    0.000    0.000    1.000    0.000
    0.000    0.000    0.866    0.000    0.500
   >For symmetry 42 ( 0 0-1 0-1 0-1 0 0)
    Rotation matrice for l=1:
   -1.000    0.000    0.000
    0.000    0.000   -1.000
    0.000   -1.000    0.000
    Rotation matrice for l=2:
    0.000    1.000    0.000    0.000    0.000
    1.000   -0.000    0.000    0.000    0.000
    0.000    0.000   -0.500    0.000    0.866
    0.000    0.000    0.000    1.000    0.000
    0.000    0.000    0.866    0.000    0.500
   >For symmetry 43 ( 0 0-1 0 1 0-1 0 0)
    Rotation matrice for l=1:
    1.000    0.000    0.000
    0.000    0.000   -1.000
    0.000   -1.000    0.000
    Rotation matrice for l=2:
    0.000   -1.000    0.000    0.000    0.000
   -1.000   -0.000    0.000    0.000    0.000
    0.000    0.000   -0.500    0.000    0.866
    0.000    0.000    0.000    1.000    0.000
    0.000    0.000    0.866    0.000    0.500
   >For symmetry 44 ( 0 0 1 0-1 0 1 0 0)
    Rotation matrice for l=1:
   -1.000    0.000    0.000
    0.000    0.000    1.000
    0.000    1.000    0.000
    Rotation matrice for l=2:
    0.000   -1.000    0.000    0.000    0.000
   -1.000   -0.000    0.000    0.000    0.000
    0.000    0.000   -0.500    0.000    0.866
    0.000    0.000    0.000    1.000    0.000
    0.000    0.000    0.866    0.000    0.500
   >For symmetry 45 ( 0 0-1 0-1 0 1 0 0)
    Rotation matrice for l=1:
   -1.000    0.000    0.000
    0.000    0.000    1.000
    0.000   -1.000    0.000
    Rotation matrice for l=2:
    0.000    1.000    0.000    0.000    0.000
   -1.000    0.000    0.000    0.000    0.000
    0.000    0.000   -0.500    0.000    0.866
    0.000    0.000    0.000   -1.000    0.000
    0.000    0.000    0.866    0.000    0.500
   >For symmetry 46 ( 0 0 1 0 1 0-1 0 0)
    Rotation matrice for l=1:
    1.000    0.000    0.000
    0.000    0.000   -1.000
    0.000    1.000    0.000
    Rotation matrice for l=2:
    0.000    1.000    0.000    0.000    0.000
   -1.000    0.000    0.000    0.000    0.000
    0.000    0.000   -0.500    0.000    0.866
    0.000    0.000    0.000   -1.000    0.000
    0.000    0.000    0.866    0.000    0.500
   >For symmetry 47 ( 0 0 1 0-1 0-1 0 0)
    Rotation matrice for l=1:
   -1.000    0.000    0.000
    0.000    0.000   -1.000
    0.000    1.000    0.000
    Rotation matrice for l=2:
    0.000   -1.000    0.000    0.000    0.000
    1.000    0.000    0.000    0.000    0.000
    0.000    0.000   -0.500    0.000    0.866
    0.000    0.000    0.000   -1.000    0.000
    0.000    0.000    0.866    0.000    0.500
   >For symmetry 48 ( 0 0-1 0 1 0 1 0 0)
    Rotation matrice for l=1:
    1.000    0.000    0.000
    0.000    0.000    1.000
    0.000   -1.000    0.000
    Rotation matrice for l=2:
    0.000   -1.000    0.000    0.000    0.000
    1.000    0.000    0.000    0.000    0.000
    0.000    0.000   -0.500    0.000    0.866
    0.000    0.000    0.000   -1.000    0.000
    0.000    0.000    0.866    0.000    0.500
 
 
 ******************************************
 LDA+U Method used: FLL
 ******************************************
 
 pawpuxinit : for species    1
   number of projectors is   2
 
 pawpuxinit : dmatpuopt=1 
   PAW+U: dens. mat. constructed by projection on atomic wfn inside PAW augm. region(s)
 
 pawpuxinit: WARNING: Check that the first partial wave for lpawu:
                      - Is an atomic eigenfunction  
                      - Is normalized 
                      In other cases, choose dmatpuopt=2
 
  pawpuxinit: icount, ph0phiint(icount)= 1  0.86852
  pawpuxinit: zioneff=        1.02450
 
  pawpuxinit: icount, ph0phiint(icount)= 2 -0.15217
  pawpuxinit: zioneff=        0.25101
 
 
 
  PAW+U: icount, phiphjint(icount)= 1  0.75433
 
  PAW+U: icount, phiphjint(icount)= 2 -0.13216
 
  PAW+U: icount, phiphjint(icount)= 3  0.02316
 
   Slater parameters F^0, F^2, F^4 are   0.0000   0.0000   0.0000
 initro: for itypat=  1, take decay length=      0.6000,
 initro: indeed, coreel=     10.0000, nval= 13 and densty=  0.0000E+00.
 initro: for itypat=  2, take decay length=      0.8500,
 initro: indeed, coreel=     28.0000, nval= 10 and densty=  0.0000E+00.
 initro: for itypat=  3, take decay length=      0.5000,
 initro: indeed, coreel=      2.0000, nval=  6 and densty=  0.0000E+00.
 
================================================================================
 FFT (fine) grid used in SCF cycle:
 
 getcut: wavevector=  0.0000  0.0000  0.0000  ngfft=  30  30  30
         ecut(hartree)=     20.000   => boxcut(ratio)=   2.05246
 
--- !WARNING
src_file: m_paw_tools.F90
src_line: 217
message: |
    PAW SPHERES ARE OVERLAPPING!
       There are     6 pairs of overlapping atoms.
       The maximum overlap percentage is obtained for the atoms   1 and   3.
        | Distance between atoms   1 and   3 is  :   3.63025
        | PAW radius of the sphere around atom   1 is:   2.35000
        | PAW radius of the sphere around atom   3 is:   1.41000
        | This leads to a (voluminal) overlap ratio of  0.39 %
...
 
       Overlap ratio seems to be acceptable (less than value
       of "pawovlp" input parameter): execution will continue.
       But be aware that results might be approximate,
       and even inaccurate (depending on your physical system) !
 
 
========== LDA+U DATA ===================================================
 
====== For Atom    1, occupations for correlated orbitals. l =   2
 
 
== Calculated occupation matrix for correlated orbitals:
 
Calculated occupation matrix for component up
     0.22630    0.00000    0.00000    0.00000    0.00000
     0.00000    0.22630    0.00000    0.00000    0.00000
     0.00000    0.00000    0.22630    0.00000    0.00000
     0.00000    0.00000    0.00000    0.22630    0.00000
     0.00000    0.00000    0.00000    0.00000    0.22630
 
 PAW TEST:
 ====== Moments of (n1-tn1) =========
 The moments of (n1-tn1-nhat1) must be very small...
 
 Atom   1 (ispden=1):
  ******* Moment of (n1-tn1)  ** Moment of (n1-tn1-nhat1)
   l,m= 0 0: M= 1.9940872E+00 **    M= 0.0000000E+00
   l,m= 1-1: M= 0.0000000E+00 **    M= 0.0000000E+00
   l,m= 1 0: M= 0.0000000E+00 **    M= 0.0000000E+00
   l,m= 1 1: M= 0.0000000E+00 **    M= 0.0000000E+00
   l,m= 2-2: M= 0.0000000E+00 **    M= 0.0000000E+00
   l,m= 2-1: M= 0.0000000E+00 **    M= 0.0000000E+00
   l,m= 2 0: M= 8.1101053E-17 **    M= 4.8854127E-18
   l,m= 2 1: M= 0.0000000E+00 **    M= 0.0000000E+00
   l,m= 2 2: M= 0.0000000E+00 **    M= 0.0000000E+00
   l,m= 3-3: M= 0.0000000E+00 **    M= 0.0000000E+00
   l,m= 3-2: M= 0.0000000E+00 **    M= 0.0000000E+00
   l,m= 3-1: M= 0.0000000E+00 **    M= 0.0000000E+00
   l,m= 3 0: M= 0.0000000E+00 **    M= 0.0000000E+00
   l,m= 3 1: M= 0.0000000E+00 **    M= 0.0000000E+00
   l,m= 3 2: M= 0.0000000E+00 **    M= 0.0000000E+00
   l,m= 3 3: M= 0.0000000E+00 **    M= 0.0000000E+00
   l,m= 4-4: M= 0.0000000E+00 **    M= 0.0000000E+00
   l,m= 4-3: M= 0.0000000E+00 **    M= 0.0000000E+00
   l,m= 4-2: M= 0.0000000E+00 **    M= 0.0000000E+00
   l,m= 4-1: M= 0.0000000E+00 **    M= 0.0000000E+00
   l,m= 4 0: M= 1.4806511E-17 **    M=-1.1981105E-17
   l,m= 4 1: M= 0.0000000E+00 **    M= 0.0000000E+00
   l,m= 4 2: M= 0.0000000E+00 **    M= 0.0000000E+00
   l,m= 4 3: M= 0.0000000E+00 **    M= 0.0000000E+00
   l,m= 4 4: M= 0.0000000E+00 **    M= 0.0000000E+00
 
======= LDA+U Energy terms (in Hartree) ====
 
 For Atom    1
   Contributions to the direct expression of energy:
     Double counting  correction   =    0.0000000000E+00
     Interaction energy            =    0.0000000000E+00
     Total LDA+U Contribution      =    0.0000000000E+00
 
   For the "Double-counting" decomposition:
     LDA+U Contribution            =    0.0000000000E+00
     edcdctemp                     =    0.0000000000E+00
     eldaumdcdc for current atom   =    0.0000000000E+00
 
   pawuenergy: -VUKS pred          =    0.0000000000E+00
 
 
 Atom   2 (ispden=1):
  ******* Moment of (n1-tn1)  ** Moment of (n1-tn1-nhat1)
   l,m= 0 0: M=-6.0634328E-01 **    M=-1.0562835E-08
   l,m= 1-1: M= 0.0000000E+00 **    M= 0.0000000E+00
   l,m= 1 0: M= 0.0000000E+00 **    M= 0.0000000E+00
   l,m= 1 1: M= 0.0000000E+00 **    M= 0.0000000E+00
   l,m= 2-2: M= 0.0000000E+00 **    M= 0.0000000E+00
   l,m= 2-1: M= 0.0000000E+00 **    M= 0.0000000E+00
   l,m= 2 0: M=-3.2101200E-18 **    M= 1.0587611E-17
   l,m= 2 1: M= 0.0000000E+00 **    M= 0.0000000E+00
   l,m= 2 2: M= 0.0000000E+00 **    M= 0.0000000E+00
   l,m= 3-3: M= 0.0000000E+00 **    M= 0.0000000E+00
   l,m= 3-2: M= 0.0000000E+00 **    M= 0.0000000E+00
   l,m= 3-1: M= 0.0000000E+00 **    M= 0.0000000E+00
   l,m= 3 0: M= 0.0000000E+00 **    M= 0.0000000E+00
   l,m= 3 1: M= 0.0000000E+00 **    M= 0.0000000E+00
   l,m= 3 2: M= 0.0000000E+00 **    M= 0.0000000E+00
   l,m= 3 3: M= 0.0000000E+00 **    M= 0.0000000E+00
   l,m= 4-4: M= 0.0000000E+00 **    M= 0.0000000E+00
   l,m= 4-3: M= 0.0000000E+00 **    M= 0.0000000E+00
   l,m= 4-2: M= 0.0000000E+00 **    M= 0.0000000E+00
   l,m= 4-1: M= 0.0000000E+00 **    M= 0.0000000E+00
   l,m= 4 0: M= 0.0000000E+00 **    M= 0.0000000E+00
   l,m= 4 1: M= 0.0000000E+00 **    M= 0.0000000E+00
   l,m= 4 2: M= 0.0000000E+00 **    M= 0.0000000E+00
   l,m= 4 3: M= 0.0000000E+00 **    M= 0.0000000E+00
   l,m= 4 4: M= 0.0000000E+00 **    M= 0.0000000E+00
 
 Atom   3 (ispden=1):
  ******* Moment of (n1-tn1)  ** Moment of (n1-tn1-nhat1)
   l,m= 0 0: M= 5.9593392E-02 **    M= 3.4694470E-17
   l,m= 1-1: M= 0.0000000E+00 **    M= 0.0000000E+00
   l,m= 1 0: M= 0.0000000E+00 **    M= 0.0000000E+00
   l,m= 1 1: M= 0.0000000E+00 **    M= 0.0000000E+00
   l,m= 2-2: M= 0.0000000E+00 **    M= 0.0000000E+00
   l,m= 2-1: M= 0.0000000E+00 **    M= 0.0000000E+00
   l,m= 2 0: M= 6.3241277E-18 **    M= 4.3218727E-18
   l,m= 2 1: M= 0.0000000E+00 **    M= 0.0000000E+00
   l,m= 2 2: M= 0.0000000E+00 **    M= 0.0000000E+00
 
 Atom   4 (ispden=1):
  ******* Moment of (n1-tn1)  ** Moment of (n1-tn1-nhat1)
   l,m= 0 0: M= 5.9593392E-02 **    M= 3.4694470E-17
   l,m= 1-1: M= 0.0000000E+00 **    M= 0.0000000E+00
   l,m= 1 0: M= 0.0000000E+00 **    M= 0.0000000E+00
   l,m= 1 1: M= 0.0000000E+00 **    M= 0.0000000E+00
   l,m= 2-2: M= 0.0000000E+00 **    M= 0.0000000E+00
   l,m= 2-1: M= 0.0000000E+00 **    M= 0.0000000E+00
   l,m= 2 0: M= 6.3241277E-18 **    M= 4.3218727E-18
   l,m= 2 1: M= 0.0000000E+00 **    M= 0.0000000E+00
   l,m= 2 2: M= 0.0000000E+00 **    M= 0.0000000E+00
 
 Atom   5 (ispden=1):
  ******* Moment of (n1-tn1)  ** Moment of (n1-tn1-nhat1)
   l,m= 0 0: M= 5.9593392E-02 **    M= 3.4694470E-17
   l,m= 1-1: M= 0.0000000E+00 **    M= 0.0000000E+00
   l,m= 1 0: M= 0.0000000E+00 **    M= 0.0000000E+00
   l,m= 1 1: M= 0.0000000E+00 **    M= 0.0000000E+00
   l,m= 2-2: M= 0.0000000E+00 **    M= 0.0000000E+00
   l,m= 2-1: M= 0.0000000E+00 **    M= 0.0000000E+00
   l,m= 2 0: M= 6.3241277E-18 **    M= 4.3218727E-18
   l,m= 2 1: M= 0.0000000E+00 **    M= 0.0000000E+00
   l,m= 2 2: M= 0.0000000E+00 **    M= 0.0000000E+00
 average electrostatic smooth potential [Ha] , [eV]      0.000000        0.000000
vpawu     1    0.00000    0.00000    0.00000    0.00000    0.00000
noccmmp   1    0.22630    0.00000    0.00000    0.00000    0.00000
 nocctot   1.13149110321034
vpawu  2  1    0.00000    0.00000    0.00000    0.00000    0.00000
noccmmp2  1    0.22630    0.00000    0.00000    0.00000    0.00000
vpawu     2    0.00000    0.00000    0.00000    0.00000    0.00000
noccmmp   2    0.00000    0.22630    0.00000    0.00000    0.00000
 nocctot   1.13149110321034
vpawu  2  2    0.00000    0.00000    0.00000    0.00000    0.00000
noccmmp2  2    0.00000    0.22630    0.00000    0.00000    0.00000
vpawu     3    0.00000    0.00000    0.00000    0.00000    0.00000
noccmmp   3    0.00000    0.00000    0.22630    0.00000    0.00000
 nocctot   1.13149110321034
vpawu  2  3    0.00000    0.00000    0.00000    0.00000    0.00000
noccmmp2  3    0.00000    0.00000    0.22630    0.00000    0.00000
vpawu     4    0.00000    0.00000    0.00000    0.00000    0.00000
noccmmp   4    0.00000    0.00000    0.00000    0.22630    0.00000
 nocctot   1.13149110321034
vpawu  2  4    0.00000    0.00000    0.00000    0.00000    0.00000
noccmmp2  4    0.00000    0.00000    0.00000    0.22630    0.00000
vpawu     5    0.00000    0.00000    0.00000    0.00000    0.00000
noccmmp   5    0.00000    0.00000    0.00000    0.00000    0.22630
 nocctot   1.13149110321034
vpawu  2  5    0.00000    0.00000    0.00000    0.00000    0.00000
noccmmp2  5    0.00000    0.00000    0.00000    0.00000    0.22630
 vpawu, ispden           1
  ( 0.0000000, 0.0000000) ( 0.0000000, 0.0000000) ( 0.0000000,
  ( 0.0000000, 0.0000000) ( 0.0000000, 0.0000000) ( 0.0000000,
  ( 0.0000000, 0.0000000) ( 0.0000000, 0.0000000) ( 0.0000000,
  ( 0.0000000, 0.0000000) ( 0.0000000, 0.0000000) ( 0.0000000,
  ( 0.0000000, 0.0000000) ( 0.0000000, 0.0000000) ( 0.0000000,
m1,m2,vpawu,noccmmp=     0.0000000000E+00    0.2262982206E+00
m1,m2,vpawu,noccmmp=     0.0000000000E+00    0.0000000000E+00
m1,m2,vpawu,noccmmp=     0.0000000000E+00    0.0000000000E+00
m1,m2,vpawu,noccmmp=     0.0000000000E+00    0.0000000000E+00
m1,m2,vpawu,noccmmp=     0.0000000000E+00    0.0000000000E+00
m1,m2,vpawu,noccmmp=     0.0000000000E+00    0.0000000000E+00
m1,m2,vpawu,noccmmp=     0.0000000000E+00    0.2262982206E+00
m1,m2,vpawu,noccmmp=     0.0000000000E+00    0.0000000000E+00
m1,m2,vpawu,noccmmp=     0.0000000000E+00    0.0000000000E+00
m1,m2,vpawu,noccmmp=     0.0000000000E+00    0.0000000000E+00
m1,m2,vpawu,noccmmp=     0.0000000000E+00    0.0000000000E+00
m1,m2,vpawu,noccmmp=     0.0000000000E+00    0.0000000000E+00
m1,m2,vpawu,noccmmp=     0.0000000000E+00    0.2262982206E+00
m1,m2,vpawu,noccmmp=     0.0000000000E+00    0.0000000000E+00
m1,m2,vpawu,noccmmp=     0.0000000000E+00    0.0000000000E+00
m1,m2,vpawu,noccmmp=     0.0000000000E+00    0.0000000000E+00
m1,m2,vpawu,noccmmp=     0.0000000000E+00    0.0000000000E+00
m1,m2,vpawu,noccmmp=     0.0000000000E+00    0.0000000000E+00
m1,m2,vpawu,noccmmp=     0.0000000000E+00    0.2262982206E+00
m1,m2,vpawu,noccmmp=     0.0000000000E+00    0.0000000000E+00
m1,m2,vpawu,noccmmp=     0.0000000000E+00    0.0000000000E+00
m1,m2,vpawu,noccmmp=     0.0000000000E+00    0.0000000000E+00
m1,m2,vpawu,noccmmp=     0.0000000000E+00    0.0000000000E+00
m1,m2,vpawu,noccmmp=     0.0000000000E+00    0.0000000000E+00
m1,m2,vpawu,noccmmp=     0.0000000000E+00    0.2262982206E+00
 pawpupot: VUKStemp=            1  0.000000000000000E+000
 pawpupot: VUKS=            1  0.000000000000000E+000
 
 ==== Values of psp strength Dij (Hartree) ============
 
 >>>>>>>>>> Atom   1:
   ************ Dij atomic (Dij0) ***********
  -0.40527  -0.06439   0.39622   0.00000   0.00000   0.00000   0.00000   0.00000   0.00000   0.00000   0.00000   0.00000 ...
  -0.06439   0.05496  -0.49675   0.00000   0.00000   0.00000   0.00000   0.00000   0.00000   0.00000   0.00000   0.00000 ...
   0.39622  -0.49675   7.73560   0.00000   0.00000   0.00000   0.00000   0.00000   0.00000   0.00000   0.00000   0.00000 ...
   0.00000   0.00000   0.00000   0.22008   0.00000   0.00000  -0.16051   0.00000   0.00000   0.07026   0.00000   0.00000 ...
   0.00000   0.00000   0.00000   0.00000   0.22008   0.00000   0.00000  -0.16051   0.00000   0.00000   0.07026   0.00000 ...
   0.00000   0.00000   0.00000   0.00000   0.00000   0.22008   0.00000   0.00000  -0.16051   0.00000   0.00000   0.07026 ...
   0.00000   0.00000   0.00000  -0.16051   0.00000   0.00000   0.03244   0.00000   0.00000  -0.10089   0.00000   0.00000 ...
   0.00000   0.00000   0.00000   0.00000  -0.16051   0.00000   0.00000   0.03244   0.00000   0.00000  -0.10089   0.00000 ...
   0.00000   0.00000   0.00000   0.00000   0.00000  -0.16051   0.00000   0.00000   0.03244   0.00000   0.00000  -0.10089 ...
   0.00000   0.00000   0.00000   0.07026   0.00000   0.00000  -0.10089   0.00000   0.00000   2.63435   0.00000   0.00000 ...
   0.00000   0.00000   0.00000   0.00000   0.07026   0.00000   0.00000  -0.10089   0.00000   0.00000   2.63435   0.00000 ...
   0.00000   0.00000   0.00000   0.00000   0.00000   0.07026   0.00000   0.00000  -0.10089   0.00000   0.00000   2.63435 ...
   ...  only 12  components have been written...
   ************** Dij Hartree ***************
   0.81039  -0.27705   2.38552   0.00000   0.00000   0.00000   0.00000   0.00000   0.00000   0.00000   0.00000   0.00000 ...
  -0.27705   0.12324  -0.95011   0.00000   0.00000   0.00000   0.00000   0.00000   0.00000   0.00000   0.00000   0.00000 ...
   2.38552  -0.95011   7.23145   0.00000   0.00000   0.00000   0.00000   0.00000   0.00000   0.00000   0.00000   0.00000 ...
   0.00000   0.00000   0.00000   0.82258   0.00000   0.00000  -0.17127   0.00000   0.00000   0.92225   0.00000   0.00000 ...
   0.00000   0.00000   0.00000   0.00000   0.82258   0.00000   0.00000  -0.17127   0.00000   0.00000   0.92225   0.00000 ...
   0.00000   0.00000   0.00000   0.00000   0.00000   0.82258   0.00000   0.00000  -0.17127   0.00000   0.00000   0.92225 ...
   0.00000   0.00000   0.00000  -0.17127   0.00000   0.00000   0.04999   0.00000   0.00000  -0.17884   0.00000   0.00000 ...
   0.00000   0.00000   0.00000   0.00000  -0.17127   0.00000   0.00000   0.04999   0.00000   0.00000  -0.17884   0.00000 ...
   0.00000   0.00000   0.00000   0.00000   0.00000  -0.17127   0.00000   0.00000   0.04999   0.00000   0.00000  -0.17884 ...
   0.00000   0.00000   0.00000   0.92225   0.00000   0.00000  -0.17884   0.00000   0.00000   0.55841   0.00000   0.00000 ...
   0.00000   0.00000   0.00000   0.00000   0.92225   0.00000   0.00000  -0.17884   0.00000   0.00000   0.55841   0.00000 ...
   0.00000   0.00000   0.00000   0.00000   0.00000   0.92225   0.00000   0.00000  -0.17884   0.00000   0.00000   0.55841 ...
   ...  only 12  components have been written...
   **************** Dij_hat *****************
  -1.56254   0.54890  -3.52578  -0.00000   0.00000  -0.00000   0.00000  -0.00000   0.00000  -0.00000   0.00000  -0.00000 ...
   0.54890   0.01867  -0.29977   0.00000  -0.00000   0.00000   0.00000  -0.00000   0.00000  -0.00000   0.00000  -0.00000 ...
  -3.52578  -0.29977   2.71482  -0.00000   0.00000  -0.00000  -0.00000   0.00000  -0.00000   0.00000  -0.00000   0.00000 ...
  -0.00000   0.00000  -0.00000  -1.82351  -0.00000  -0.00000   0.34245   0.00000   0.00000  -0.58078   0.00000   0.00000 ...
   0.00000  -0.00000   0.00000  -0.00000  -1.82351  -0.00000   0.00000   0.34245   0.00000   0.00000  -0.58078   0.00000 ...
  -0.00000   0.00000  -0.00000  -0.00000  -0.00000  -1.82351   0.00000   0.00000   0.34245   0.00000   0.00000  -0.58078 ...
   0.00000   0.00000  -0.00000   0.34245   0.00000   0.00000  -0.02932   0.00000   0.00000   0.05682  -0.00000  -0.00000 ...
  -0.00000  -0.00000   0.00000   0.00000   0.34245   0.00000   0.00000  -0.02932   0.00000  -0.00000   0.05682  -0.00000 ...
   0.00000   0.00000  -0.00000   0.00000   0.00000   0.34245   0.00000   0.00000  -0.02932  -0.00000  -0.00000   0.05682 ...
  -0.00000  -0.00000   0.00000  -0.58078   0.00000   0.00000   0.05682  -0.00000  -0.00000  -0.68350  -0.00000  -0.00000 ...
   0.00000   0.00000  -0.00000   0.00000  -0.58078   0.00000  -0.00000   0.05682  -0.00000  -0.00000  -0.68350  -0.00000 ...
  -0.00000  -0.00000   0.00000   0.00000   0.00000  -0.58078  -0.00000  -0.00000   0.05682  -0.00000  -0.00000  -0.68350 ...
   ...  only 12  components have been written...
   ************* Dij_LDA+U (dijpawu) **********
   0.00000   0.00000   0.00000   0.00000   0.00000   0.00000   0.00000   0.00000   0.00000   0.00000   0.00000   0.00000 ...
   0.00000   0.00000   0.00000   0.00000   0.00000   0.00000   0.00000   0.00000   0.00000   0.00000   0.00000   0.00000 ...
   0.00000   0.00000   0.00000   0.00000   0.00000   0.00000   0.00000   0.00000   0.00000   0.00000   0.00000   0.00000 ...
   0.00000   0.00000   0.00000   0.00000   0.00000   0.00000   0.00000   0.00000   0.00000   0.00000   0.00000   0.00000 ...
   0.00000   0.00000   0.00000   0.00000   0.00000   0.00000   0.00000   0.00000   0.00000   0.00000   0.00000   0.00000 ...
   0.00000   0.00000   0.00000   0.00000   0.00000   0.00000   0.00000   0.00000   0.00000   0.00000   0.00000   0.00000 ...
   0.00000   0.00000   0.00000   0.00000   0.00000   0.00000   0.00000   0.00000   0.00000   0.00000   0.00000   0.00000 ...
   0.00000   0.00000   0.00000   0.00000   0.00000   0.00000   0.00000   0.00000   0.00000   0.00000   0.00000   0.00000 ...
   0.00000   0.00000   0.00000   0.00000   0.00000   0.00000   0.00000   0.00000   0.00000   0.00000   0.00000   0.00000 ...
   0.00000   0.00000   0.00000   0.00000   0.00000   0.00000   0.00000   0.00000   0.00000   0.00000   0.00000   0.00000 ...
   0.00000   0.00000   0.00000   0.00000   0.00000   0.00000   0.00000   0.00000   0.00000   0.00000   0.00000   0.00000 ...
   0.00000   0.00000   0.00000   0.00000   0.00000   0.00000   0.00000   0.00000   0.00000   0.00000   0.00000   0.00000 ...
   ...  only 12  components have been written...
   ***************** Dij_xc *****************
  -0.29736   0.09771  -0.87859   0.00000   0.00000   0.00000   0.00000   0.00000   0.00000   0.00000   0.00000   0.00000 ...
   0.09771  -0.02790   0.22127   0.00000   0.00000   0.00000   0.00000   0.00000   0.00000   0.00000   0.00000   0.00000 ...
  -0.87859   0.22127  -1.70449   0.00000   0.00000   0.00000   0.00000   0.00000   0.00000   0.00000   0.00000   0.00000 ...
   0.00000   0.00000   0.00000  -0.26778   0.00000   0.00000   0.06043   0.00000   0.00000  -0.32311   0.00000   0.00000 ...
   0.00000   0.00000   0.00000   0.00000  -0.26778   0.00000   0.00000   0.06043   0.00000   0.00000  -0.32311   0.00000 ...
   0.00000   0.00000   0.00000   0.00000   0.00000  -0.26778   0.00000   0.00000   0.06043   0.00000   0.00000  -0.32311 ...
   0.00000   0.00000   0.00000   0.06043   0.00000   0.00000  -0.01314   0.00000   0.00000   0.05438   0.00000   0.00000 ...
   0.00000   0.00000   0.00000   0.00000   0.06043   0.00000   0.00000  -0.01314   0.00000   0.00000   0.05438   0.00000 ...
   0.00000   0.00000   0.00000   0.00000   0.00000   0.06043   0.00000   0.00000  -0.01314   0.00000   0.00000   0.05438 ...
   0.00000   0.00000   0.00000  -0.32311   0.00000   0.00000   0.05438   0.00000   0.00000  -0.20235   0.00000   0.00000 ...
   0.00000   0.00000   0.00000   0.00000  -0.32311   0.00000   0.00000   0.05438   0.00000   0.00000  -0.20235   0.00000 ...
   0.00000   0.00000   0.00000   0.00000   0.00000  -0.32311   0.00000   0.00000   0.05438   0.00000   0.00000  -0.20235 ...
   ...  only 12  components have been written...
   **********    TOTAL Dij in Ha   **********
  -1.45477   0.30518  -1.62263  -0.00000   0.00000  -0.00000   0.00000  -0.00000   0.00000  -0.00000   0.00000  -0.00000 ...
   0.30518   0.16896  -1.52535   0.00000  -0.00000   0.00000   0.00000  -0.00000   0.00000  -0.00000   0.00000  -0.00000 ...
  -1.62263  -1.52535  15.97738  -0.00000   0.00000  -0.00000  -0.00000   0.00000  -0.00000   0.00000  -0.00000   0.00000 ...
  -0.00000   0.00000  -0.00000  -1.04863  -0.00000  -0.00000   0.07110   0.00000   0.00000   0.08862   0.00000   0.00000 ...
   0.00000  -0.00000   0.00000  -0.00000  -1.04863  -0.00000   0.00000   0.07110   0.00000   0.00000   0.08862   0.00000 ...
  -0.00000   0.00000  -0.00000  -0.00000  -0.00000  -1.04863   0.00000   0.00000   0.07110   0.00000   0.00000   0.08862 ...
   0.00000   0.00000  -0.00000   0.07110   0.00000   0.00000   0.03997   0.00000   0.00000  -0.16853  -0.00000  -0.00000 ...
  -0.00000  -0.00000   0.00000   0.00000   0.07110   0.00000   0.00000   0.03997   0.00000  -0.00000  -0.16853  -0.00000 ...
   0.00000   0.00000  -0.00000   0.00000   0.00000   0.07110   0.00000   0.00000   0.03997  -0.00000  -0.00000  -0.16853 ...
  -0.00000  -0.00000   0.00000   0.08862   0.00000   0.00000  -0.16853  -0.00000  -0.00000   2.30692  -0.00000  -0.00000 ...
   0.00000   0.00000  -0.00000   0.00000   0.08862   0.00000  -0.00000  -0.16853  -0.00000  -0.00000   2.30692  -0.00000 ...
  -0.00000  -0.00000   0.00000   0.00000   0.00000   0.08862  -0.00000  -0.00000  -0.16853  -0.00000  -0.00000   2.30692 ...
   ...  only 12  components have been written...
 
 >>>>>>>>>> Atom   5:
   ************ Dij atomic (Dij0) ***********
  -0.08185   0.08267   0.00000   0.00000   0.00000   0.00000   0.00000   0.00000
   0.08267  -0.14883   0.00000   0.00000   0.00000   0.00000   0.00000   0.00000
   0.00000   0.00000  -0.49477   0.00000   0.00000   0.06964   0.00000   0.00000
   0.00000   0.00000   0.00000  -0.49477   0.00000   0.00000   0.06964   0.00000
   0.00000   0.00000   0.00000   0.00000  -0.49477   0.00000   0.00000   0.06964
   0.00000   0.00000   0.06964   0.00000   0.00000  -1.10031   0.00000   0.00000
   0.00000   0.00000   0.00000   0.06964   0.00000   0.00000  -1.10031   0.00000
   0.00000   0.00000   0.00000   0.00000   0.06964   0.00000   0.00000  -1.10031
   ************** Dij Hartree ***************
  -0.05020   0.06189   0.00000   0.00000   0.00000   0.00000   0.00000   0.00000
   0.06189  -0.02597   0.00000   0.00000   0.00000   0.00000   0.00000   0.00000
   0.00000   0.00000   0.06216   0.00000   0.00000  -0.03973   0.00000   0.00000
   0.00000   0.00000   0.00000   0.06216   0.00000   0.00000  -0.03973   0.00000
   0.00000   0.00000   0.00000   0.00000   0.06216   0.00000   0.00000  -0.03973
   0.00000   0.00000  -0.03973   0.00000   0.00000  -0.00871   0.00000   0.00000
   0.00000   0.00000   0.00000  -0.03973   0.00000   0.00000  -0.00871   0.00000
   0.00000   0.00000   0.00000   0.00000  -0.03973   0.00000   0.00000  -0.00871
   **************** Dij_hat *****************
   0.24078  -0.09304  -0.00000  -0.00000  -0.00000  -0.00000  -0.00000  -0.00000
  -0.09304   0.20114   0.00000   0.00000   0.00000  -0.00000  -0.00000  -0.00000
  -0.00000   0.00000  -0.21717   0.00000   0.00000  -0.02065   0.00000   0.00000
  -0.00000   0.00000   0.00000  -0.21733  -0.00000   0.00000  -0.02077  -0.00000
  -0.00000   0.00000   0.00000  -0.00000  -0.21717   0.00000  -0.00000  -0.02065
  -0.00000  -0.00000  -0.02065   0.00000   0.00000  -0.07521   0.00000   0.00000
  -0.00000  -0.00000   0.00000  -0.02077  -0.00000   0.00000  -0.07536  -0.00000
  -0.00000  -0.00000   0.00000  -0.00000  -0.02065   0.00000  -0.00000  -0.07521
   ***************** Dij_xc *****************
  -0.06458   0.04262   0.00000   0.00000   0.00000   0.00000   0.00000   0.00000
   0.04262  -0.01526   0.00000   0.00000   0.00000   0.00000   0.00000   0.00000
   0.00000   0.00000  -0.04931   0.00000   0.00000   0.04917   0.00000   0.00000
   0.00000   0.00000   0.00000  -0.04931   0.00000   0.00000   0.04917   0.00000
   0.00000   0.00000   0.00000   0.00000  -0.04931   0.00000   0.00000   0.04917
   0.00000   0.00000   0.04917   0.00000   0.00000  -0.03304   0.00000   0.00000
   0.00000   0.00000   0.00000   0.04917   0.00000   0.00000  -0.03304   0.00000
   0.00000   0.00000   0.00000   0.00000   0.04917   0.00000   0.00000  -0.03304
   **********    TOTAL Dij in Ha   **********
   0.04416   0.09414  -0.00000  -0.00000  -0.00000  -0.00000  -0.00000  -0.00000
   0.09414   0.01107   0.00000   0.00000   0.00000  -0.00000  -0.00000  -0.00000
  -0.00000   0.00000  -0.69910   0.00000   0.00000   0.05843   0.00000   0.00000
  -0.00000   0.00000   0.00000  -0.69926  -0.00000   0.00000   0.05831  -0.00000
  -0.00000   0.00000   0.00000  -0.00000  -0.69910   0.00000  -0.00000   0.05843
  -0.00000  -0.00000   0.05843   0.00000   0.00000  -1.21727   0.00000   0.00000
  -0.00000  -0.00000   0.00000   0.05831  -0.00000   0.00000  -1.21742  -0.00000
  -0.00000  -0.00000   0.00000  -0.00000   0.05843   0.00000  -0.00000  -1.21727
 
 
 PAW TEST:
 ========= Values of DIJ in symdij (Hartree) =========
 
 Atom #  1
  -1.45477   0.30518  -1.62263   0.00000   0.00000   0.00000   0.00000   0.00000   0.00000   0.00000   0.00000   0.00000 ...
   0.30518   0.16896  -1.52535   0.00000   0.00000   0.00000   0.00000   0.00000   0.00000   0.00000   0.00000   0.00000 ...
  -1.62263  -1.52535  15.97738   0.00000   0.00000   0.00000   0.00000   0.00000   0.00000   0.00000   0.00000   0.00000 ...
   0.00000   0.00000   0.00000  -1.04863   0.00000   0.00000   0.07110   0.00000   0.00000   0.08862   0.00000   0.00000 ...
   0.00000   0.00000   0.00000   0.00000  -1.04863   0.00000   0.00000   0.07110   0.00000   0.00000   0.08862   0.00000 ...
   0.00000   0.00000   0.00000   0.00000   0.00000  -1.04863   0.00000   0.00000   0.07110   0.00000   0.00000   0.08862 ...
   0.00000   0.00000   0.00000   0.07110   0.00000   0.00000   0.03997   0.00000   0.00000  -0.16853   0.00000   0.00000 ...
   0.00000   0.00000   0.00000   0.00000   0.07110   0.00000   0.00000   0.03997   0.00000   0.00000  -0.16853   0.00000 ...
   0.00000   0.00000   0.00000   0.00000   0.00000   0.07110   0.00000   0.00000   0.03997   0.00000   0.00000  -0.16853 ...
   0.00000   0.00000   0.00000   0.08862   0.00000   0.00000  -0.16853   0.00000   0.00000   2.30692   0.00000   0.00000 ...
   0.00000   0.00000   0.00000   0.00000   0.08862   0.00000   0.00000  -0.16853   0.00000   0.00000   2.30692   0.00000 ...
   0.00000   0.00000   0.00000   0.00000   0.00000   0.08862   0.00000   0.00000  -0.16853   0.00000   0.00000   2.30692 ...
   ...  only 12  components have been written...
 Atom #  5
   0.04416   0.09414   0.00000   0.00000   0.00000   0.00000   0.00000   0.00000
   0.09414   0.01107   0.00000   0.00000   0.00000   0.00000   0.00000   0.00000
   0.00000   0.00000  -0.69910   0.00000   0.00000   0.05843   0.00000   0.00000
   0.00000   0.00000   0.00000  -0.69926   0.00000   0.00000   0.05831   0.00000
   0.00000   0.00000   0.00000   0.00000  -0.69910   0.00000   0.00000   0.05843
   0.00000   0.00000   0.05843   0.00000   0.00000  -1.21727   0.00000   0.00000
   0.00000   0.00000   0.00000   0.05831   0.00000   0.00000  -1.21742   0.00000
   0.00000   0.00000   0.00000   0.00000   0.05843   0.00000   0.00000  -1.21727
 
 
[...]
                      -1.66666667E-01  5.00000000E-01  1.66666667E-01
                      -3.33333333E-01 -3.33333333E-01  1.66666667E-01
                      -1.66666667E-01  0.00000000E+00  0.00000000E+00
                       5.00000000E-01  5.00000000E-01  1.66666667E-01
                      -3.33333333E-01  5.00000000E-01  3.33333333E-01
                       5.00000000E-01  0.00000000E+00  0.00000000E+00
                       5.00000000E-01  5.00000000E-01  5.00000000E-01
         kptrlatt        3   -3    3     -3    3    3     -3   -3    3
          kptrlen      3.77266647E+01
            lpawu           2      -1      -1
P           mkmem          10
            natom           5
            nband          30
           ndtset           2
            ngfft          24      24      24
          ngfftdg          30      30      30
             nkpt          10
            nline1          5
            nline2         10
           nnsclo1          5
           nnsclo2         10
            nstep1         30
            nstep2         10
             nsym          48
           ntypat           3
              occ1     2.000000  2.000000  2.000000  2.000000  2.000000  2.000000
                       2.000000  2.000000  2.000000  2.000000  2.000000  2.000000
                       2.000000  2.000000  2.000000  2.000000  2.000000  2.000000
                       2.000000  2.000000  1.782115  0.002764  0.002305  0.000000
                       0.000000  0.000000  0.000000  0.000000  0.000000  0.000000
                       2.000000  2.000000  2.000000  2.000000  2.000000  2.000000
                       2.000000  2.000000  2.000000  2.000000  2.000000  2.000000
                       2.000000  2.000000  2.000000  2.000000  2.000000  2.000000
                       2.000000  2.000000  1.128873  0.643094  0.643094  0.000000
                       0.000000  0.000000  0.000000  0.000000  0.000000  0.000000
                       2.000000  2.000000  2.000000  2.000000  2.000000  2.000000
                       2.000000  2.000000  2.000000  2.000000  2.000000  2.000000
                       2.000000  2.000000  2.000000  2.000000  2.000000  2.000000
                       2.000000  2.000000  0.003004  0.000075  0.000016  0.000000
                       0.000000  0.000000  0.000000  0.000000  0.000000  0.000000
                       2.000000  2.000000  2.000000  2.000000  2.000000  2.000000
                       2.000000  2.000000  2.000000  2.000000  2.000000  2.000000
                       2.000000  2.000000  2.000000  2.000000  2.000000  2.000000
                       2.000000  2.000000  0.467819  0.000064  0.000038  0.000000
                       0.000000  0.000000  0.000000  0.000000  0.000000  0.000000
                       2.000000  2.000000  2.000000  2.000000  2.000000  2.000000
                       2.000000  2.000000  2.000000  2.000000  2.000000  2.000000
                       2.000000  2.000000  2.000000  2.000000  2.000000  2.000000
                       2.000000  2.000000  0.001401  0.000669  0.000090  0.000000
                       0.000000  0.000000  0.000000  0.000000  0.000000  0.000000
                       2.000000  2.000000  2.000000  2.000000  2.000000  2.000000
                       2.000000  2.000000  2.000000  2.000000  2.000000  2.000000
                       2.000000  2.000000  2.000000  2.000000  2.000000  2.000000
                       2.000000  2.000000  1.999628  1.840592  1.840592  0.000008
                       0.000000  0.000000  0.000000  0.000000  0.000000  0.000000
                       2.000000  2.000000  2.000000  2.000000  2.000000  2.000000
                       2.000000  2.000000  2.000000  2.000000  2.000000  2.000000
                       2.000000  2.000000  2.000000  2.000000  2.000000  2.000000
                       2.000000  2.000000  0.000027  0.000027  0.000002  0.000000
                       0.000000  0.000000  0.000000  0.000000  0.000000  0.000000
                       2.000000  2.000000  2.000000  2.000000  2.000000  2.000000
                       2.000000  2.000000  2.000000  2.000000  2.000000  2.000000
                       2.000000  2.000000  2.000000  2.000000  2.000000  2.000000
                       2.000000  2.000000  0.000016  0.000003  0.000002  0.000000
                       0.000000  0.000000  0.000000  0.000000  0.000000  0.000000
                       2.000000  2.000000  2.000000  2.000000  2.000000  2.000000
                       2.000000  2.000000  2.000000  2.000000  2.000000  2.000000
                       2.000000  2.000000  2.000000  2.000000  2.000000  2.000000
                       2.000000  2.000000  1.999076  0.000053  0.000053  0.000007
                       0.000000  0.000000  0.000000  0.000000  0.000000  0.000000
                       2.000000  2.000000  2.000000  2.000000  2.000000  2.000000
                       2.000000  2.000000  2.000000  2.000000  2.000000  2.000000
                       2.000000  2.000000  2.000000  2.000000  2.000000  2.000000
                       2.000000  2.000000  0.000000  0.000000  0.000000  0.000000
                       0.000000  0.000000  0.000000  0.000000  0.000000  0.000000
              occ2     2.000000  2.000000  2.000000  2.000000  2.000000  2.000000
                       2.000000  2.000000  2.000000  2.000000  2.000000  2.000000
                       2.000000  2.000000  2.000000  2.000000  2.000000  2.000000
                       2.000000  2.000000  1.094764  0.165637  0.163600  0.000000
                       0.000000  0.000000  0.000000  0.000000  0.000000  0.000000
                       2.000000  2.000000  2.000000  2.000000  2.000000  2.000000
                       2.000000  2.000000  2.000000  2.000000  2.000000  2.000000
                       2.000000  2.000000  2.000000  2.000000  2.000000  2.000000
                       2.000000  2.000000  0.785564  0.624606  0.624606  0.000000
                       0.000000  0.000000  0.000000  0.000000  0.000000  0.000000
                       2.000000  2.000000  2.000000  2.000000  2.000000  2.000000
                       2.000000  2.000000  2.000000  2.000000  2.000000  2.000000
                       2.000000  2.000000  2.000000  2.000000  2.000000  2.000000
                       2.000000  2.000000  0.171323  0.112620  0.103554  0.000000
                       0.000000  0.000000  0.000000  0.000000  0.000000  0.000000
                       2.000000  2.000000  2.000000  2.000000  2.000000  2.000000
                       2.000000  2.000000  2.000000  2.000000  2.000000  2.000000
                       2.000000  2.000000  2.000000  2.000000  2.000000  2.000000
                       2.000000  2.000000  0.553637  0.112401  0.105305  0.000000
                       0.000000  0.000000  0.000000  0.000000  0.000000  0.000000
                       2.000000  2.000000  2.000000  2.000000  2.000000  2.000000
                       2.000000  2.000000  2.000000  2.000000  2.000000  2.000000
                       2.000000  2.000000  2.000000  2.000000  2.000000  2.000000
                       2.000000  2.000000  0.154976  0.140969  0.117549  0.000000
                       0.000000  0.000000  0.000000  0.000000  0.000000  0.000000
                       2.000000  2.000000  2.000000  2.000000  2.000000  2.000000
                       2.000000  2.000000  2.000000  2.000000  2.000000  2.000000
                       2.000000  2.000000  2.000000  2.000000  2.000000  2.000000
                       2.000000  2.000000  1.533266  1.167966  1.167966  0.000008
                       0.000000  0.000000  0.000000  0.000000  0.000000  0.000000
                       2.000000  2.000000  2.000000  2.000000  2.000000  2.000000
                       2.000000  2.000000  2.000000  2.000000  2.000000  2.000000
                       2.000000  2.000000  2.000000  2.000000  2.000000  2.000000
                       2.000000  2.000000  0.104709  0.104709  0.089964  0.000000
                       0.000000  0.000000  0.000000  0.000000  0.000000  0.000000
                       2.000000  2.000000  2.000000  2.000000  2.000000  2.000000
                       2.000000  2.000000  2.000000  2.000000  2.000000  2.000000
                       2.000000  2.000000  2.000000  2.000000  2.000000  2.000000
                       2.000000  2.000000  0.101252  0.091823  0.087891  0.000000
                       0.000000  0.000000  0.000000  0.000000  0.000000  0.000000
                       2.000000  2.000000  2.000000  2.000000  2.000000  2.000000
                       2.000000  2.000000  2.000000  2.000000  2.000000  2.000000
                       2.000000  2.000000  2.000000  2.000000  2.000000  2.000000
                       2.000000  2.000000  1.487998  0.106426  0.106426  0.000007
                       0.000000  0.000000  0.000000  0.000000  0.000000  0.000000
                       2.000000  2.000000  2.000000  2.000000  2.000000  2.000000
                       2.000000  2.000000  2.000000  2.000000  2.000000  2.000000
                       2.000000  2.000000  2.000000  2.000000  2.000000  2.000000
                       2.000000  2.000000  0.076731  0.076731  0.076731  0.000000
                       0.000000  0.000000  0.000000  0.000000  0.000000  0.000000
           occopt           3
        optforces1          2
        optforces2          0
        pawecutdg      2.00000000E+01 Hartree
        pawprtvol           3
           prtvol           4
           shiftk      5.00000000E-01  5.00000000E-01  5.00000000E-01
          spgroup         221
           strten1     3.5333102387E-03  3.5333102387E-03  3.5333102387E-03
                       0.0000000000E+00  0.0000000000E+00  0.0000000000E+00
           strten2     3.4801940202E-03  3.4801940202E-03  3.4801940202E-03
                       0.0000000000E+00  0.0000000000E+00  0.0000000000E+00
           symrel      1  0  0   0  1  0   0  0  1      -1  0  0   0 -1  0   0  0 -1
                      -1  0  0   0  1  0   0  0 -1       1  0  0   0 -1  0   0  0  1
                      -1  0  0   0 -1  0   0  0  1       1  0  0   0  1  0   0  0 -1
                       1  0  0   0 -1  0   0  0 -1      -1  0  0   0  1  0   0  0  1
                       0  1  0   1  0  0   0  0  1       0 -1  0  -1  0  0   0  0 -1
                       0 -1  0   1  0  0   0  0 -1       0  1  0  -1  0  0   0  0  1
                       0 -1  0  -1  0  0   0  0  1       0  1  0   1  0  0   0  0 -1
                       0  1  0  -1  0  0   0  0 -1       0 -1  0   1  0  0   0  0  1
                       0  0  1   1  0  0   0  1  0       0  0 -1  -1  0  0   0 -1  0
                       0  0 -1   1  0  0   0 -1  0       0  0  1  -1  0  0   0  1  0
                       0  0 -1  -1  0  0   0  1  0       0  0  1   1  0  0   0 -1  0
                       0  0  1  -1  0  0   0 -1  0       0  0 -1   1  0  0   0  1  0
                       1  0  0   0  0  1   0  1  0      -1  0  0   0  0 -1   0 -1  0
                      -1  0  0   0  0  1   0 -1  0       1  0  0   0  0 -1   0  1  0
                      -1  0  0   0  0 -1   0  1  0       1  0  0   0  0  1   0 -1  0
                       1  0  0   0  0 -1   0 -1  0      -1  0  0   0  0  1   0  1  0
                       0  1  0   0  0  1   1  0  0       0 -1  0   0  0 -1  -1  0  0
                       0 -1  0   0  0  1  -1  0  0       0  1  0   0  0 -1   1  0  0
                       0 -1  0   0  0 -1   1  0  0       0  1  0   0  0  1  -1  0  0
                       0  1  0   0  0 -1  -1  0  0       0 -1  0   0  0  1   1  0  0
                       0  0  1   0  1  0   1  0  0       0  0 -1   0 -1  0  -1  0  0
                       0  0 -1   0  1  0  -1  0  0       0  0  1   0 -1  0   1  0  0
                       0  0 -1   0 -1  0   1  0  0       0  0  1   0  1  0  -1  0  0
                       0  0  1   0 -1  0  -1  0  0       0  0 -1   0  1  0   1  0  0
           tolvrs      1.00000000E-07
           tsmear      3.80017850E-03 Hartree
            typat      1  2  3  3  3
            upawu1     0.00000000E+00  0.00000000E+00  0.00000000E+00 Hartree
            upawu2     1.15147886E-01  0.00000000E+00  0.00000000E+00 Hartree
          usedmft1          0
          usedmft2          1
          usepawu1          1
          usepawu2         10
           useylm           1
              wtk        0.22222    0.07407    0.11111    0.11111    0.22222    0.05556
                         0.05556    0.11111    0.02778    0.00926
           xangst      0.0000000000E+00  0.0000000000E+00  0.0000000000E+00
                       1.9210455615E+00  1.9210455615E+00  1.9210455615E+00
                       1.9210455615E+00  0.0000000000E+00  0.0000000000E+00
                       0.0000000000E+00  1.9210455615E+00  0.0000000000E+00
                       0.0000000000E+00  0.0000000000E+00  1.9210455615E+00
            xcart      0.0000000000E+00  0.0000000000E+00  0.0000000000E+00
                       3.6302500000E+00  3.6302500000E+00  3.6302500000E+00
                       3.6302500000E+00  0.0000000000E+00  0.0000000000E+00
                       0.0000000000E+00  3.6302500000E+00  0.0000000000E+00
                       0.0000000000E+00  0.0000000000E+00  3.6302500000E+00
             xred      0.0000000000E+00  0.0000000000E+00  0.0000000000E+00
                       5.0000000000E-01  5.0000000000E-01  5.0000000000E-01
                       5.0000000000E-01  0.0000000000E+00  0.0000000000E+00
                       0.0000000000E+00  5.0000000000E-01  0.0000000000E+00
                       0.0000000000E+00  0.0000000000E+00  5.0000000000E-01
            znucl       23.00000   38.00000    8.00000
 
================================================================================
  

================================================================================

 Suggested references for the acknowledgment of ABINIT usage.

 The users of ABINIT have little formal obligations with respect to the ABINIT group
 (those specified in the GNU General Public License, http://www.gnu.org/copyleft/gpl.txt).
 However, it is common practice in the scientific literature,
 to acknowledge the efforts of people that have made the research possible.
 In this spirit, please find below suggested citations of work written by ABINIT developers,
 corresponding to implementations inside of ABINIT that you have used in the present run.
 Note also that it will be of great value to readers of publications presenting these results,
 to read papers enabling them to understand the theoretical formalism and details
 of the ABINIT implementation.
 For information on why they are suggested, see also https://docs.abinit.org/theory/acknowledgments.
-
- [1] A self-consistent DFT + DMFT scheme in the projector augmented wave method: 
- applications to cerium, Ce2O3 and Pu2O3 with the Hubbard I solver and comparison to DFT + U,
- B. Amadon,  J. Phys.: Condens. Matter 24 075604 (2012).
- Comment : Describes the self-consistent implementation of DFT+DMFT in PAW
- DOI and bibtex : see https://docs.abinit.org/theory/bibliography/#amadon2012
-
- [2] Plane-wave based electronic structure calculations for correlated materials.
- using dynamical mean-field theory and projected local orbitals,
- B. Amadon, F. Lechermann, A. Georges, F. Jollet, T.O. Wehling, A.I. Lichenstein,
- Phys. Rev. B 77, 205112 (2008).
- Comment : to be cited in case the computation of overlap operator for Wannier90 interface within PAW is used,
- i.e. prtwant=2 and usepaw=1. The paper describes also the DFT+DMFT implementation on Wannier functions
- DOI and bibtex : see https://docs.abinit.org/theory/bibliography/#amadon2008
-
- [3] Gamma and beta cerium: LDA+U calculations of ground-state parameters.
- B. Amadon, F. Jollet and M. Torrent, Phys. Rev. B 77, 155104 (2008).
- Comment : LDA+U calculations, usepawu/=0. Strong suggestion to cite this paper.
- DOI and bibtex : see https://docs.abinit.org/theory/bibliography/#amadon2008a
-
- [4] Implementation of the Projector Augmented-Wave Method in the ABINIT code.
- M. Torrent, F. Jollet, F. Bottin, G. Zerah, and X. Gonze Comput. Mat. Science 42, 337, (2008).
- Comment : PAW calculations. Strong suggestion to cite this paper.
- DOI and bibtex : see https://docs.abinit.org/theory/bibliography/#torrent2008
-
- [5] Recent developments in the ABINIT software package.
- Computer Phys. Comm. 205, 106 (2016).
- X.Gonze, F.Jollet, F.Abreu Araujo, D.Adams, B.Amadon, T.Applencourt,
- C.Audouze, J.-M.Beuken, J.Bieder, A.Bokhanchuk, E.Bousquet, F.Bruneval
- D.Caliste, M.Cote, F.Dahm, F.Da Pieve, M.Delaveau, M.Di Gennaro,
- B.Dorado, C.Espejo, G.Geneste, L.Genovese, A.Gerossier, M.Giantomassi,
- Y.Gillet, D.R.Hamann, L.He, G.Jomard, J.Laflamme Janssen, S.Le Roux,
- A.Levitt, A.Lherbier, F.Liu, I.Lukacevic, A.Martin, C.Martins,
- M.J.T.Oliveira, S.Ponce, Y.Pouillon, T.Rangel, G.-M.Rignanese,
- A.H.Romero, B.Rousseau, O.Rubel, A.A.Shukri, M.Stankovski, M.Torrent,
- M.J.Van Setten, B.Van Troeye, M.J.Verstraete, D.Waroquier, J.Wiktor,
- B.Xu, A.Zhou, J.W.Zwanziger.
- Comment : the fourth generic paper describing the ABINIT project.
- Note that a version of this paper, that is not formatted for Computer Phys. Comm. 
- is available at https://www.abinit.org/about/ABINIT16.pdf .
- The licence allows the authors to put it on the Web.
- DOI and bibtex : see https://docs.abinit.org/theory/bibliography/#gonze2016
-
- [6] ABINIT : First-principles approach of materials and nanosystem properties.
- Computer Phys. Comm. 180, 2582-2615 (2009).
- X. Gonze, B. Amadon, P.-M. Anglade, J.-M. Beuken, F. Bottin, P. Boulanger, F. Bruneval,
- D. Caliste, R. Caracas, M. Cote, T. Deutsch, L. Genovese, Ph. Ghosez, M. Giantomassi
- S. Goedecker, D.R. Hamann, P. Hermet, F. Jollet, G. Jomard, S. Leroux, M. Mancini, S. Mazevet,
- M.J.T. Oliveira, G. Onida, Y. Pouillon, T. Rangel, G.-M. Rignanese, D. Sangalli, R. Shaltaf,
- M. Torrent, M.J. Verstraete, G. Zerah, J.W. Zwanziger
- Comment : the third generic paper describing the ABINIT project.
- Note that a version of this paper, that is not formatted for Computer Phys. Comm. 
- is available at https://www.abinit.org/about/ABINIT_CPC_v10.pdf .
- The licence allows the authors to put it on the Web.
- DOI and bibtex : see https://docs.abinit.org/theory/bibliography/#gonze2009
-
- [7] A brief introduction to the ABINIT software package.
- Z. Kristallogr. 220, 558-562 (2005).
- X. Gonze, G.-M. Rignanese, M. Verstraete, J.-M. Beuken, Y. Pouillon, R. Caracas, F. Jollet,
- M. Torrent, G. Zerah, M. Mikami, Ph. Ghosez, M. Veithen, J.-Y. Raty, V. Olevano, F. Bruneval,
- L. Reining, R. Godby, G. Onida, D.R. Hamann, and D.C. Allan.
- Comment : the second generic paper describing the ABINIT project. Note that this paper
- should be cited especially if you are using the GW part of ABINIT, as several authors
- of this part are not in the list of authors of the first or third paper.
- The .pdf of the latter paper is available at https://www.abinit.org/about/zfk_0505-06_558-562.pdf.
- Note that it should not redistributed (Copyright by Oldenburg Wissenshaftverlag,
- the licence allows the authors to put it on the Web).
- DOI and bibtex : see https://docs.abinit.org/theory/bibliography/#gonze2005
  Asked to delete not existent file: tdmft_2x_STATUS
 Proc.   0 individual time (sec): cpu=        143.0  wall=        143.7
 
 Calculation completed.
.Delivered  30 WARNINGs and   4 COMMENTs to log file.

--- !FinalSummary
program: abinit
version: 8.10.2
start_datetime: Thu Oct 18 16:46:58 2018
end_datetime: Thu Oct 18 16:49:22 2018
overall_cpu_time:         143.0
overall_wall_time:         143.7
exit_requested_by_user: no 
timelimit: 0
pseudos: 
    V   : e102c5a7de91ca6f84372e874155e89b
    Sr  : 755f08485eeee4c3da9d58f01d12a620
    O   : 15014c86d7b57399bac6dc7b0121c990
usepaw: 1
mpi_procs: 1
omp_threads: 1
num_warnings: 30
num_comments: 4
...
