  ABINIT 8.10.2
  
  Give name for formatted input file: 
t76.in
  Give name for formatted output file:
t76.out
  Give root name for generic input files:
t76i
  Give root name for generic output files:
t76o
  Give root name for generic temporary files:
t76x
 
--- !COMMENT
src_file: m_dtfil.F90
src_line: 1159
message: |
    Output file t76.out
     already exists.
...
 
 
--- !COMMENT
src_file: m_dtfil.F90
src_line: 1183
message: |
    Renaming old t76.out to t76.out0001
...
 

.Version 8.10.2 of ABINIT 
.(MPI version, prepared for a x86_64_linux_intel18.0 computer) 

.Copyright (C) 1998-2018 ABINIT group . 
 ABINIT comes with ABSOLUTELY NO WARRANTY.
 It is free software, and you are welcome to redistribute it
 under certain conditions (GNU General Public License,
 see ~abinit/COPYING or http://www.gnu.org/copyleft/gpl.txt).

 ABINIT is a project of the Universite Catholique de Louvain,
 Corning Inc. and other collaborators, see ~abinit/doc/developers/contributors.txt .
 Please read https://docs.abinit.org/theory/acknowledgments for suggested
 acknowledgments of the ABINIT effort.
 For more information, see https://www.abinit.org .

.Starting date : Sun 21 Oct 2018.
- ( at 20h29 )
  
 
 ++++++++++++++++++++++++++++++++++++++++++++++++++++++++++++++++++++++++++++++
 
 === Build Information === 
  Version       : 8.10.2
  Build target  : x86_64_linux_intel18.0
  Build date    : 20181015
 
 === Compiler Suite === 
  C compiler       : intel18.0
  C++ compiler     : gnu18.0
  Fortran compiler : intel18.0
  CFLAGS           :  -g -O2 -vec-report0
  CXXFLAGS         :  -g -O2 -mtune=native -march=native
  FCFLAGS          :  -g -extend-source -noaltparam -nofpscomp
  FC_LDFLAGS       :    -static-intel -static-libgcc
 
 === Optimizations === 
  Debug level        : basic
  Optimization level : standard
  Architecture       : intel_xeon
 
 === Multicore === 
  Parallel build : yes
  Parallel I/O   : auto
  openMP support : no
  GPU support    : no
 
 === Connectors / Fallbacks === 
  Connectors on : yes
  Fallbacks on  : yes
  DFT flavor    : none
  FFT flavor    : fftw3
  LINALG flavor : mkl
  MATH flavor   : none
  TIMER flavor  : abinit
  TRIO flavor   : none
 
 === Experimental features === 
  Bindings            : @enable_bindings@
  Exports             : no
  GW double-precision : no
 
 ++++++++++++++++++++++++++++++++++++++++++++++++++++++++++++++++++++++++++++++
 

 ++++++++++++++++++++++++++++++++++++++++++++++++++++++++++++++++++++++++++++++
 Default optimizations:
   -O3


 Optimizations for 43_ptgroups:
   -O0


 ++++++++++++++++++++++++++++++++++++++++++++++++++++++++++++++++++++++++++++++


 ++++++++++++++++++++++++++++++++++++++++++++++++++++++++++++++++++++++++++++++
 CPP options activated during the build:

                  CC_INTEL                   CXX_GNU                  FC_INTEL
 
 HAVE_FC_ALLOCATABLE_DT...             HAVE_FC_ASYNC  HAVE_FC_COMMAND_ARGUMENT
 
      HAVE_FC_COMMAND_LINE        HAVE_FC_CONTIGUOUS           HAVE_FC_CPUTIME
 
              HAVE_FC_EXIT             HAVE_FC_FLUSH             HAVE_FC_GAMMA
 
   HAVE_FC_IEEE_EXCEPTIONS             HAVE_FC_IOMSG     HAVE_FC_ISO_C_BINDING
 
  HAVE_FC_ISO_FORTRAN_2008        HAVE_FC_LONG_LINES        HAVE_FC_MOVE_ALLOC
 
           HAVE_FC_PRIVATE         HAVE_FC_PROTECTED         HAVE_FC_STREAM_IO
 
                  HAVE_FFT            HAVE_FFT_FFTW3              HAVE_FFT_MPI
 
           HAVE_FFT_SERIAL        HAVE_LIBPAW_ABINIT      HAVE_LIBTETRA_ABINIT
 
               HAVE_LINALG        HAVE_LINALG_SERIAL                  HAVE_MPI
 
                 HAVE_MPI2       HAVE_MPI_IALLREDUCE        HAVE_MPI_IALLTOALL
 
       HAVE_MPI_IALLTOALLV        HAVE_MPI_INTEGER16               HAVE_MPI_IO
 
 HAVE_MPI_TYPE_CREATE_S...                HAVE_NUMPY             HAVE_OS_LINUX
 
         HAVE_TIMER_ABINIT              USE_MACROAVE                            
 ++++++++++++++++++++++++++++++++++++++++++++++++++++++++++++++++++++++++++++++

- input  file    -> t76.in
- output file    -> t76.out
- root for input  files -> t76i
- root for output files -> t76o
 
-instrng: 90 lines of input have been read from file t76.in
 

 Please give name of formatted atomic psp file
 iofn2 : for atom type 1, psp file is ../../../Psps_for_tests/Cu_LDA_abinit
  read the values zionpsp= 19.0 , pspcod=   7 , lmax=   2
 2 0.                                   : shape_type,rshape                     
  
 
 inpspheads: deduce mpsang = 3, n1xccc = 1.
 invars1 : treat image number: 1
 
 symlatt : the Bravais lattice is cF (face-centered cubic)
  xred   is defined in input file
 ingeo: takes atomic coordinates from input array xred
 
 symlatt : the Bravais lattice is cF (face-centered cubic)
 
 symlatt : the Bravais lattice is cF (face-centered cubic)
 symspgr : spgroup= 225  Fm -3 m   (=Oh^5)
 symspgr : optical characteristics = isotropic
 ingeo: angdeg(1:3)=   60.00000000   60.00000000   60.00000000
 invars1 : treat image number: 1
 
 symlatt : the Bravais lattice is cF (face-centered cubic)
  xred   is defined in input file
 ingeo: takes atomic coordinates from input array xred
 
 symlatt : the Bravais lattice is cF (face-centered cubic)
 
 symlatt : the Bravais lattice is cF (face-centered cubic)
 
--- !COMMENT
src_file: m_symfind.F90
src_line: 815
message: |
    The Bravais lattice determined only from the primitive
    vectors, bravais(1)=  7, is more symmetric
    than the real one, iholohedry=  1, obtained by taking into
    account the atomic positions. Start deforming the primitive vector set.
...
 
 
 symlatt : the Bravais lattice is hR (rhombohedral)
 
--- !COMMENT
src_file: m_symfind.F90
src_line: 824
message: |
    The Bravais lattice determined from modified primitive
    vectors, bravais(1)=  5, has a lower symmetry than before,
    but is still more symmetric than the real one, iholohedry=  1
    obtained by taking into account the atomic positions.
...
 
 
 symlatt : the Bravais lattice is mC (one-face-centered monoclinic)
 
--- !COMMENT
src_file: m_symfind.F90
src_line: 824
message: |
    The Bravais lattice determined from modified primitive
    vectors, bravais(1)=  2, has a lower symmetry than before,
    but is still more symmetric than the real one, iholohedry=  1
    obtained by taking into account the atomic positions.
...
 
 
 symlatt : the Bravais lattice is aP (primitive triclinic)
 symspgr : spgroup=   1  P1   (=C1^1)
 ingeo: angdeg(1:3)=   60.00000000   60.00000000   60.00000000
 invars1 : treat image number: 1
 
 symlatt : the Bravais lattice is cF (face-centered cubic)
  xred   is defined in input file
 ingeo: takes atomic coordinates from input array xred
 
 symlatt : the Bravais lattice is cF (face-centered cubic)
 
 symlatt : the Bravais lattice is cF (face-centered cubic)
 
--- !COMMENT
src_file: m_symfind.F90
src_line: 815
message: |
    The Bravais lattice determined only from the primitive
    vectors, bravais(1)=  7, is more symmetric
    than the real one, iholohedry=  1, obtained by taking into
    account the atomic positions. Start deforming the primitive vector set.
...
 
 
 symlatt : the Bravais lattice is hR (rhombohedral)
 
--- !COMMENT
src_file: m_symfind.F90
src_line: 824
message: |
    The Bravais lattice determined from modified primitive
    vectors, bravais(1)=  5, has a lower symmetry than before,
    but is still more symmetric than the real one, iholohedry=  1
    obtained by taking into account the atomic positions.
...
 
 
 symlatt : the Bravais lattice is mC (one-face-centered monoclinic)
 
--- !COMMENT
src_file: m_symfind.F90
src_line: 824
message: |
    The Bravais lattice determined from modified primitive
    vectors, bravais(1)=  2, has a lower symmetry than before,
    but is still more symmetric than the real one, iholohedry=  1
    obtained by taking into account the atomic positions.
...
 
 
 symlatt : the Bravais lattice is aP (primitive triclinic)
 symspgr : spgroup=   1  P1   (=C1^1)
 ingeo: angdeg(1:3)=   60.00000000   60.00000000   60.00000000
 chkneu : initialized the occupation numbers for occopt=    3, spin-unpolarized or antiferromagnetic case :
  2.00  2.00  2.00  2.00  2.00  2.00  2.00  2.00  2.00  1.00  0.00  0.00
  0.00  0.00  0.00  0.00  0.00  0.00  0.00  0.00  0.00  0.00  0.00  0.00
  0.00  0.00  0.00  0.00  0.00  0.00
 chkneu : initialized the occupation numbers for occopt=    3, spin-unpolarized or antiferromagnetic case :
  2.00  2.00  2.00  2.00  2.00  2.00  2.00  2.00  2.00  1.00  0.00  0.00
  0.00  0.00  0.00  0.00  0.00  0.00  0.00  0.00  0.00  0.00  0.00  0.00
  0.00  0.00  0.00  0.00  0.00  0.00
 chkneu : initialized the occupation numbers for occopt=    3, spin-unpolarized or antiferromagnetic case :
  2.00  2.00  2.00  2.00  2.00  2.00  2.00  2.00  2.00  1.00  0.00  0.00
  0.00  0.00  0.00  0.00  0.00  0.00  0.00  0.00  0.00  0.00  0.00  0.00
  0.00  0.00  0.00  0.00  0.00  0.00
mpi_setup: mkmem  undefined in the input file.Use default mkmem  = nkpt
 mpi_setup: With nkpt_me=3 and mkmem  = 3, ground state wf handled in core.
mpi_setup: mkqmem undefined in the input file.Use default mkqmem = nkpt
 mpi_setup: With nkpt_me=3 and mkqmem = 3, ground state wf handled in core.
mpi_setup: mk1mem undefined in the input file.Use default mk1mem = nkpt
 mpi_setup: With nkpt_me=3 and mk1mem = 3, ground state wf handled in core.
getng is called for the coarse grid:
 For input ecut=  8.000000E+00 best grid ngfft=      15      15      15
       max ecut=  1.049739E+01
 
 ==== FFT mesh ====
  FFT mesh divisions ........................    15   15   15
  Augmented FFT divisions ...................    15   15   15
  FFT algorithm .............................   312
  FFT cache size ............................    16
 getmpw: optimal value of mpw= 92
getng is called for the fine grid:
 Using supplied coarse mesh as initial guess.
 For input ecut=  1.200000E+01 best grid ngfft=      16      16      16
       max ecut=  1.357239E+01
 
 ==== FFT mesh ====
  FFT mesh divisions ........................    16   16   16
  Augmented FFT divisions ...................    17   17   16
  FFT algorithm .............................   312
  FFT cache size ............................    16
mpi_setup: mkmem  undefined in the input file.Use default mkmem  = nkpt
 mpi_setup: With nkpt_me=8 and mkmem  = 8, ground state wf handled in core.
mpi_setup: mkqmem undefined in the input file.Use default mkqmem = nkpt
 mpi_setup: With nkpt_me=8 and mkqmem = 8, ground state wf handled in core.
mpi_setup: mk1mem undefined in the input file.Use default mk1mem = nkpt
 mpi_setup: With nkpt_me=8 and mk1mem = 8, ground state wf handled in core.
getng is called for the coarse grid:
 For input ecut=  8.000000E+00 best grid ngfft=      15      15      15
       max ecut=  1.049739E+01
 
 ==== FFT mesh ====
  FFT mesh divisions ........................    15   15   15
  Augmented FFT divisions ...................    15   15   15
  FFT algorithm .............................   312
  FFT cache size ............................    16
 getmpw: optimal value of mpw= 92
getng is called for the fine grid:
 Using supplied coarse mesh as initial guess.
 For input ecut=  1.200000E+01 best grid ngfft=      16      16      16
       max ecut=  1.357239E+01
 
 ==== FFT mesh ====
  FFT mesh divisions ........................    16   16   16
  Augmented FFT divisions ...................    17   17   16
  FFT algorithm .............................   312
  FFT cache size ............................    16
mpi_setup: mkmem  undefined in the input file.Use default mkmem  = nkpt
 mpi_setup: With nkpt_me=8 and mkmem  = 8, ground state wf handled in core.
mpi_setup: mkqmem undefined in the input file.Use default mkqmem = nkpt
 mpi_setup: With nkpt_me=8 and mkqmem = 8, ground state wf handled in core.
mpi_setup: mk1mem undefined in the input file.Use default mk1mem = nkpt
 mpi_setup: With nkpt_me=8 and mk1mem = 8, ground state wf handled in core.
getng is called for the coarse grid:
 For input ecut=  8.000000E+00 best grid ngfft=      15      15      15
       max ecut=  1.049739E+01
 
 ==== FFT mesh ====
  FFT mesh divisions ........................    15   15   15
  Augmented FFT divisions ...................    15   15   15
  FFT algorithm .............................   312
  FFT cache size ............................    16
 getmpw: optimal value of mpw= 92
getng is called for the fine grid:
 Using supplied coarse mesh as initial guess.
 For input ecut=  1.200000E+01 best grid ngfft=      16      16      16
       max ecut=  1.357239E+01
 
 ==== FFT mesh ====
  FFT mesh divisions ........................    16   16   16
  Augmented FFT divisions ...................    17   17   16
  FFT algorithm .............................   312
  FFT cache size ............................    16
 
 DATASET    1 : space group Fm -3 m (#225); Bravais cF (face-center cubic)
 
 getdim_nloc : deduce lmnmax  =  18, lnmax  =   6,
                      lmnmaxso=  18, lnmaxso=   6.
memory : analysis of memory needs
================================================================================
 Values of the parameters that define the memory need for DATASET  1.
     intxc =       0    ionmov =       0      iscf =      17    lmnmax =      18
     lnmax =       6     mgfft =      15  mpssoang =       3    mqgrid =    3001
     natom =       1  nloc_mem =       2    nspden =       1   nspinor =       1
    nsppol =       1      nsym =      48    n1xccc =       1    ntypat =       1
    occopt =       3   xclevel =       1
-    mband =          30        mffmem =           1         mkmem =           3
       mpw =          92          nfft =        3375          nkpt =           3
 PAW method is used; the additional fine FFT grid is defined by:
   mgfftf=        16    nfftf =      4096
================================================================================
P This job should need less than                       4.314 Mbytes of memory.
  Rough estimation (10% accuracy) of disk space for files :
_ WF disk file :      0.128 Mbytes ; DEN or POT disk file :      0.033 Mbytes.
================================================================================
 
 Biggest array : pawfgrtab%gylm(gr), with      1.8267 MBytes.
 memana : allocated an array of      1.827 Mbytes, for testing purposes.
 memana: allocated       4.314Mbytes, for testing purposes. 
 The job will continue.
 
 DATASET    2 : space group P1 (#  1); Bravais aP (primitive triclinic)
 
 getdim_nloc : deduce lmnmax  =  18, lnmax  =   6,
                      lmnmaxso=  18, lnmaxso=   6.
memory : analysis of memory needs
================================================================================
 Values of the parameters that define the memory need for DATASET  2.
     intxc =       0    ionmov =       0      iscf =      17    lmnmax =      18
     lnmax =       6     mgfft =      15  mpssoang =       3    mqgrid =    3001
     natom =       1  nloc_mem =       2    nspden =       1   nspinor =       1
    nsppol =       1      nsym =       1    n1xccc =       1    ntypat =       1
    occopt =       3   xclevel =       1
-    mband =          30        mffmem =           1         mkmem =           8
       mpw =          92          nfft =        3375          nkpt =           8
 PAW method is used; the additional fine FFT grid is defined by:
   mgfftf=        16    nfftf =      4096
================================================================================
P This job should need less than                       4.537 Mbytes of memory.
  Rough estimation (10% accuracy) of disk space for files :
_ WF disk file :      0.339 Mbytes ; DEN or POT disk file :      0.033 Mbytes.
================================================================================
 
 Biggest array : pawfgrtab%gylm(gr), with      1.8267 MBytes.
 memana : allocated an array of      1.827 Mbytes, for testing purposes.
 memana: allocated       4.537Mbytes, for testing purposes. 
 The job will continue.
 
 DATASET    3 : space group P1 (#  1); Bravais aP (primitive triclinic)
 
 getdim_nloc : deduce lmnmax  =  18, lnmax  =   6,
                      lmnmaxso=  18, lnmaxso=   6.
memory : analysis of memory needs
================================================================================
 Values of the parameters that define the memory need for DATASET  3.
     intxc =       0    ionmov =       0      iscf =      17    lmnmax =      18
     lnmax =       6     mgfft =      15  mpssoang =       3    mqgrid =    3001
     natom =       1  nloc_mem =       2    nspden =       1   nspinor =       1
    nsppol =       1      nsym =       1    n1xccc =       1    ntypat =       1
    occopt =       3   xclevel =       1
-    mband =          30        mffmem =           1         mkmem =           8
       mpw =          92          nfft =        3375          nkpt =           8
 PAW method is used; the additional fine FFT grid is defined by:
   mgfftf=        16    nfftf =      4096
================================================================================
P This job should need less than                       4.537 Mbytes of memory.
  Rough estimation (10% accuracy) of disk space for files :
_ WF disk file :      0.339 Mbytes ; DEN or POT disk file :      0.033 Mbytes.
================================================================================
 
 Biggest array : pawfgrtab%gylm(gr), with      1.8267 MBytes.
 memana : allocated an array of      1.827 Mbytes, for testing purposes.
 memana: allocated       4.537Mbytes, for testing purposes. 
 The job will continue.
--------------------------------------------------------------------------------
------------- Echo of variables that govern the present computation ------------
--------------------------------------------------------------------------------
-
- outvars: echo of selected default values                                      
-   iomode0 =  0 , fftalg0 =312 , wfoptalg0 = 10
-
- outvars: echo of global parameters not present in the input file              
-  max_nthreads =    0
-
 -outvars: echo values of preprocessed input variables --------
            acell      6.8220000000E+00  6.8220000000E+00  6.8220000000E+00 Bohr
              amu      6.35460000E+01
             ecut      8.00000000E+00 Hartree
-          fftalg         312
           getden1          0
           getden2         -1
           getden3          2
           getwfk1          0
           getwfk2          0
           getwfk3          2
           iatsph3       1
           istwfk1       1    1    1
           istwfk2       1    1    1    1    1    1    1    1
           istwfk3       1    1    1    1    1    1    1    1
              ixc           7
           jdtset        1    2    3
              kpt1     0.00000000E+00  0.00000000E+00  0.00000000E+00
                       5.00000000E-01  0.00000000E+00  0.00000000E+00
                       5.00000000E-01  5.00000000E-01  0.00000000E+00
              kpt2     0.00000000E+00  0.00000000E+00  0.00000000E+00
                       5.00000000E-01  0.00000000E+00  0.00000000E+00
                       0.00000000E+00  5.00000000E-01  0.00000000E+00
                       5.00000000E-01  5.00000000E-01  0.00000000E+00
                       0.00000000E+00  0.00000000E+00  5.00000000E-01
                       5.00000000E-01  0.00000000E+00  5.00000000E-01
                       0.00000000E+00  5.00000000E-01  5.00000000E-01
                       5.00000000E-01  5.00000000E-01  5.00000000E-01
              kpt3     0.00000000E+00  0.00000000E+00  0.00000000E+00
                       5.00000000E-01  0.00000000E+00  0.00000000E+00
                       0.00000000E+00  5.00000000E-01  0.00000000E+00
                       5.00000000E-01  5.00000000E-01  0.00000000E+00
                       0.00000000E+00  0.00000000E+00  5.00000000E-01
                       5.00000000E-01  0.00000000E+00  5.00000000E-01
                       0.00000000E+00  5.00000000E-01  5.00000000E-01
                       5.00000000E-01  5.00000000E-01  5.00000000E-01
         kptrlatt        2    0    0      0    2    0      0    0    2
          kptrlen      9.64776492E+00
          kssform1          1
          kssform2          1
          kssform3          3
P           mkmem1          3
P           mkmem2          8
P           mkmem3          8
            natom           1
           natsph3       1
            nband1         30
            nband2         30
            nband3         30
         nbandkss1          0
         nbandkss2          0
         nbandkss3          2
           ndtset           3
            ngfft          15      15      15
          ngfftdg          16      16      16
             nkpt1          3
             nkpt2          8
             nkpt3          8
            nline1          5
            nline2          3
            nline3          5
           nnsclo1          2
           nnsclo2          3
           nnsclo3          2
            nstep          20
             nsym1         48
             nsym2          1
             nsym3          1
           ntypat           1
              occ1     2.000000  2.000000  2.000000  2.000000  2.000000  2.000000
                       2.000000  2.000000  2.000000  1.000000  0.000000  0.000000
                       0.000000  0.000000  0.000000  0.000000  0.000000  0.000000
                       0.000000  0.000000  0.000000  0.000000  0.000000  0.000000
                       0.000000  0.000000  0.000000  0.000000  0.000000  0.000000
                       2.000000  2.000000  2.000000  2.000000  2.000000  2.000000
                       2.000000  2.000000  2.000000  1.000000  0.000000  0.000000
                       0.000000  0.000000  0.000000  0.000000  0.000000  0.000000
                       0.000000  0.000000  0.000000  0.000000  0.000000  0.000000
                       0.000000  0.000000  0.000000  0.000000  0.000000  0.000000
                       2.000000  2.000000  2.000000  2.000000  2.000000  2.000000
                       2.000000  2.000000  2.000000  1.000000  0.000000  0.000000
                       0.000000  0.000000  0.000000  0.000000  0.000000  0.000000
                       0.000000  0.000000  0.000000  0.000000  0.000000  0.000000
                       0.000000  0.000000  0.000000  0.000000  0.000000  0.000000
              occ2     2.000000  2.000000  2.000000  2.000000  2.000000  2.000000
                       2.000000  2.000000  2.000000  1.000000  0.000000  0.000000
                       0.000000  0.000000  0.000000  0.000000  0.000000  0.000000
                       0.000000  0.000000  0.000000  0.000000  0.000000  0.000000
                       0.000000  0.000000  0.000000  0.000000  0.000000  0.000000
                       2.000000  2.000000  2.000000  2.000000  2.000000  2.000000
                       2.000000  2.000000  2.000000  1.000000  0.000000  0.000000
                       0.000000  0.000000  0.000000  0.000000  0.000000  0.000000
                       0.000000  0.000000  0.000000  0.000000  0.000000  0.000000
                       0.000000  0.000000  0.000000  0.000000  0.000000  0.000000
                       2.000000  2.000000  2.000000  2.000000  2.000000  2.000000
                       2.000000  2.000000  2.000000  1.000000  0.000000  0.000000
                       0.000000  0.000000  0.000000  0.000000  0.000000  0.000000
                       0.000000  0.000000  0.000000  0.000000  0.000000  0.000000
                       0.000000  0.000000  0.000000  0.000000  0.000000  0.000000
                       2.000000  2.000000  2.000000  2.000000  2.000000  2.000000
                       2.000000  2.000000  2.000000  1.000000  0.000000  0.000000
                       0.000000  0.000000  0.000000  0.000000  0.000000  0.000000
                       0.000000  0.000000  0.000000  0.000000  0.000000  0.000000
                       0.000000  0.000000  0.000000  0.000000  0.000000  0.000000
                       2.000000  2.000000  2.000000  2.000000  2.000000  2.000000
                       2.000000  2.000000  2.000000  1.000000  0.000000  0.000000
                       0.000000  0.000000  0.000000  0.000000  0.000000  0.000000
                       0.000000  0.000000  0.000000  0.000000  0.000000  0.000000
                       0.000000  0.000000  0.000000  0.000000  0.000000  0.000000
                       2.000000  2.000000  2.000000  2.000000  2.000000  2.000000
                       2.000000  2.000000  2.000000  1.000000  0.000000  0.000000
                       0.000000  0.000000  0.000000  0.000000  0.000000  0.000000
                       0.000000  0.000000  0.000000  0.000000  0.000000  0.000000
                       0.000000  0.000000  0.000000  0.000000  0.000000  0.000000
                       2.000000  2.000000  2.000000  2.000000  2.000000  2.000000
                       2.000000  2.000000  2.000000  1.000000  0.000000  0.000000
                       0.000000  0.000000  0.000000  0.000000  0.000000  0.000000
                       0.000000  0.000000  0.000000  0.000000  0.000000  0.000000
                       0.000000  0.000000  0.000000  0.000000  0.000000  0.000000
                       2.000000  2.000000  2.000000  2.000000  2.000000  2.000000
                       2.000000  2.000000  2.000000  1.000000  0.000000  0.000000
                       0.000000  0.000000  0.000000  0.000000  0.000000  0.000000
                       0.000000  0.000000  0.000000  0.000000  0.000000  0.000000
                       0.000000  0.000000  0.000000  0.000000  0.000000  0.000000
              occ3     2.000000  2.000000  2.000000  2.000000  2.000000  2.000000
                       2.000000  2.000000  2.000000  1.000000  0.000000  0.000000
                       0.000000  0.000000  0.000000  0.000000  0.000000  0.000000
                       0.000000  0.000000  0.000000  0.000000  0.000000  0.000000
                       0.000000  0.000000  0.000000  0.000000  0.000000  0.000000
                       2.000000  2.000000  2.000000  2.000000  2.000000  2.000000
                       2.000000  2.000000  2.000000  1.000000  0.000000  0.000000
                       0.000000  0.000000  0.000000  0.000000  0.000000  0.000000
                       0.000000  0.000000  0.000000  0.000000  0.000000  0.000000
                       0.000000  0.000000  0.000000  0.000000  0.000000  0.000000
                       2.000000  2.000000  2.000000  2.000000  2.000000  2.000000
                       2.000000  2.000000  2.000000  1.000000  0.000000  0.000000
                       0.000000  0.000000  0.000000  0.000000  0.000000  0.000000
                       0.000000  0.000000  0.000000  0.000000  0.000000  0.000000
                       0.000000  0.000000  0.000000  0.000000  0.000000  0.000000
                       2.000000  2.000000  2.000000  2.000000  2.000000  2.000000
                       2.000000  2.000000  2.000000  1.000000  0.000000  0.000000
                       0.000000  0.000000  0.000000  0.000000  0.000000  0.000000
                       0.000000  0.000000  0.000000  0.000000  0.000000  0.000000
                       0.000000  0.000000  0.000000  0.000000  0.000000  0.000000
                       2.000000  2.000000  2.000000  2.000000  2.000000  2.000000
                       2.000000  2.000000  2.000000  1.000000  0.000000  0.000000
                       0.000000  0.000000  0.000000  0.000000  0.000000  0.000000
                       0.000000  0.000000  0.000000  0.000000  0.000000  0.000000
                       0.000000  0.000000  0.000000  0.000000  0.000000  0.000000
                       2.000000  2.000000  2.000000  2.000000  2.000000  2.000000
                       2.000000  2.000000  2.000000  1.000000  0.000000  0.000000
                       0.000000  0.000000  0.000000  0.000000  0.000000  0.000000
                       0.000000  0.000000  0.000000  0.000000  0.000000  0.000000
                       0.000000  0.000000  0.000000  0.000000  0.000000  0.000000
                       2.000000  2.000000  2.000000  2.000000  2.000000  2.000000
                       2.000000  2.000000  2.000000  1.000000  0.000000  0.000000
                       0.000000  0.000000  0.000000  0.000000  0.000000  0.000000
                       0.000000  0.000000  0.000000  0.000000  0.000000  0.000000
                       0.000000  0.000000  0.000000  0.000000  0.000000  0.000000
                       2.000000  2.000000  2.000000  2.000000  2.000000  2.000000
                       2.000000  2.000000  2.000000  1.000000  0.000000  0.000000
                       0.000000  0.000000  0.000000  0.000000  0.000000  0.000000
                       0.000000  0.000000  0.000000  0.000000  0.000000  0.000000
                       0.000000  0.000000  0.000000  0.000000  0.000000  0.000000
           occopt           3
        pawecutdg      1.20000000E+01 Hartree
          pawovlp     -1.0000000000E+00
        pawprtvol           3
     plowan_bandi1          0
     plowan_bandi2          0
     plowan_bandi3          5
     plowan_bandf1          0
     plowan_bandf2          0
     plowan_bandf3         10
   plowan_compute1          0
   plowan_compute2          0
   plowan_compute3          1
     plowan_natom1          0
     plowan_natom2          0
     plowan_natom3          1
        plowan_nt1          0
        plowan_nt2          0
        plowan_nt3          1
 plowan_realspace1          0
 plowan_realspace2          0
 plowan_realspace3          1
        plowan_it3       0    0    0
     plowan_iatom3       1
       plowan_nbl3       1
     plowan_lcalc3       2
  plowan_projcalc3       5
           prtdos1          0
           prtdos2          0
           prtdos3          3
            rprim      5.0000000000E-01  5.0000000000E-01  0.0000000000E+00
                       0.0000000000E+00  5.0000000000E-01  5.0000000000E-01
                       5.0000000000E-01  0.0000000000E+00  5.0000000000E-01
          spgroup1        225
          spgroup2          1
          spgroup3          1
           symafm1       1    1    1    1    1    1    1    1    1    1
                         1    1    1    1    1    1    1    1    1    1
                         1    1    1    1    1    1    1    1    1    1
                         1    1    1    1    1    1    1    1    1    1
                         1    1    1    1    1    1    1    1
           symafm2       1
           symafm3       1
           symrel1     1  0  0   0  1  0   0  0  1      -1  0  0   0 -1  0   0  0 -1
                       0 -1  1   0 -1  0   1 -1  0       0  1 -1   0  1  0  -1  1  0
                      -1  0  0  -1  0  1  -1  1  0       1  0  0   1  0 -1   1 -1  0
                       0  1 -1   1  0 -1   0  0 -1       0 -1  1  -1  0  1   0  0  1
                      -1  0  0  -1  1  0  -1  0  1       1  0  0   1 -1  0   1  0 -1
                       0 -1  1   1 -1  0   0 -1  0       0  1 -1  -1  1  0   0  1  0
                       1  0  0   0  0  1   0  1  0      -1  0  0   0  0 -1   0 -1  0
                       0  1 -1   0  0 -1   1  0 -1       0 -1  1   0  0  1  -1  0  1
                      -1  0  1  -1  1  0  -1  0  0       1  0 -1   1 -1  0   1  0  0
                       0 -1  0   1 -1  0   0 -1  1       0  1  0  -1  1  0   0  1 -1
                       1  0 -1   0  0 -1   0  1 -1      -1  0  1   0  0  1   0 -1  1
                       0  1  0   0  0  1   1  0  0       0 -1  0   0  0 -1  -1  0  0
                       1  0 -1   0  1 -1   0  0 -1      -1  0  1   0 -1  1   0  0  1
                       0 -1  0   0 -1  1   1 -1  0       0  1  0   0  1 -1  -1  1  0
                      -1  0  1  -1  0  0  -1  1  0       1  0 -1   1  0  0   1 -1  0
                       0  1  0   1  0  0   0  0  1       0 -1  0  -1  0  0   0  0 -1
                       0  0 -1   0  1 -1   1  0 -1       0  0  1   0 -1  1  -1  0  1
                       1 -1  0   0 -1  1   0 -1  0      -1  1  0   0  1 -1   0  1  0
                       0  0  1   1  0  0   0  1  0       0  0 -1  -1  0  0   0 -1  0
                      -1  1  0  -1  0  0  -1  0  1       1 -1  0   1  0  0   1  0 -1
                       0  0  1   0  1  0   1  0  0       0  0 -1   0 -1  0  -1  0  0
                       1 -1  0   0 -1  0   0 -1  1      -1  1  0   0  1  0   0  1 -1
                       0  0 -1   1  0 -1   0  1 -1       0  0  1  -1  0  1   0 -1  1
                      -1  1  0  -1  0  1  -1  0  0       1 -1  0   1  0 -1   1  0  0
           symrel2     1  0  0   0  1  0   0  0  1
           symrel3     1  0  0   0  1  0   0  0  1
            tnons1     0.0000000  0.0000000  0.0000000     0.0000000  0.0000000  0.0000000
                       0.0000000  0.0000000  0.0000000     0.0000000  0.0000000  0.0000000
                       0.0000000  0.0000000  0.0000000     0.0000000  0.0000000  0.0000000
                       0.0000000  0.0000000  0.0000000     0.0000000  0.0000000  0.0000000
                       0.0000000  0.0000000  0.0000000     0.0000000  0.0000000  0.0000000
                       0.0000000  0.0000000  0.0000000     0.0000000  0.0000000  0.0000000
                       0.0000000  0.0000000  0.0000000     0.0000000  0.0000000  0.0000000
                       0.0000000  0.0000000  0.0000000     0.0000000  0.0000000  0.0000000
                       0.0000000  0.0000000  0.0000000     0.0000000  0.0000000  0.0000000
                       0.0000000  0.0000000  0.0000000     0.0000000  0.0000000  0.0000000
                       0.0000000  0.0000000  0.0000000     0.0000000  0.0000000  0.0000000
                       0.0000000  0.0000000  0.0000000     0.0000000  0.0000000  0.0000000
                       0.0000000  0.0000000  0.0000000     0.0000000  0.0000000  0.0000000
                       0.0000000  0.0000000  0.0000000     0.0000000  0.0000000  0.0000000
                       0.0000000  0.0000000  0.0000000     0.0000000  0.0000000  0.0000000
                       0.0000000  0.0000000  0.0000000     0.0000000  0.0000000  0.0000000
                       0.0000000  0.0000000  0.0000000     0.0000000  0.0000000  0.0000000
                       0.0000000  0.0000000  0.0000000     0.0000000  0.0000000  0.0000000
                       0.0000000  0.0000000  0.0000000     0.0000000  0.0000000  0.0000000
                       0.0000000  0.0000000  0.0000000     0.0000000  0.0000000  0.0000000
                       0.0000000  0.0000000  0.0000000     0.0000000  0.0000000  0.0000000
                       0.0000000  0.0000000  0.0000000     0.0000000  0.0000000  0.0000000
                       0.0000000  0.0000000  0.0000000     0.0000000  0.0000000  0.0000000
                       0.0000000  0.0000000  0.0000000     0.0000000  0.0000000  0.0000000
            tnons2     0.0000000  0.0000000  0.0000000
            tnons3     0.0000000  0.0000000  0.0000000
           tolwfr      1.00000000E-10
           tsmear      3.67490000E-03 Hartree
            typat      1
           useylm           1
              wtk1       0.12500    0.50000    0.37500
              wtk2       0.12500    0.12500    0.12500    0.12500    0.12500    0.12500
                         0.12500    0.12500
              wtk3       0.12500    0.12500    0.12500    0.12500    0.12500    0.12500
                         0.12500    0.12500
            znucl       29.00000
 
================================================================================
 
 chkinp: Checking input parameters for consistency, jdtset=   1.
 
 chkinp: Checking input parameters for consistency, jdtset=   2.
 
 chkinp: Checking input parameters for consistency, jdtset=   3.
 Checking if input is consistent with KSS generation
 DATA TYPE INFORMATION: 
 REAL:      Data type name: REAL(DP) 
            Kind value:      8
            Precision:      15
            Smallest nonnegligible quantity relative to 1:  0.22204460E-15
            Smallest positive number:                       0.22250739-307
            Largest representable number:                   0.17976931+309
 INTEGER:   Data type name: INTEGER(default) 
            Kind value: 4
            Bit size:   32
            Largest representable number: 2147483647
 LOGICAL:   Data type name: LOGICAL 
            Kind value: 4
 CHARACTER: Data type name: CHARACTER             Kind value: 1

  ==== OpenMP parallelism is OFF ====
 
  ==== Using MPI-2 specifications ==== 
  MPI-IO support is ON
  xmpi_tag_ub ................   2147483647
  xmpi_bsize_ch ..............            1
  xmpi_bsize_int .............            4
  xmpi_bsize_sp ..............            4
  xmpi_bsize_dp ..............            8
  xmpi_bsize_spc .............            8
  xmpi_bsize_dpc .............           16
  xmpio_bsize_frm ............            4
  xmpi_address_kind ..........            8
  xmpi_offset_kind ...........            8
  MPI_WTICK ..................   1.000000000000000E-006
 
================================================================================
== DATASET  1 ==================================================================
-   nproc =    1
 
 
--- !COMMENT
src_file: m_xgScalapack.F90
src_line: 251
message: |
    xgScalapack in auto mode
...
 
 
 getdim_nloc : deduce lmnmax  =  18, lnmax  =   6,
                      lmnmaxso=  18, lnmaxso=   6.
 Exchange-correlation functional for the present dataset will be:
  LDA: Perdew-Wang 92 LSD fit to Ceperley-Alder data - ixc=7
 Citation for XC functional:
  J.P.Perdew and Y.Wang, PRB 45, 13244 (1992)
 
 Unit cell volume ucvol=  7.9373431E+01 bohr^3
 Angles (23,13,12)=  6.00000000E+01  6.00000000E+01  6.00000000E+01 degrees
 
 Coarse grid specifications (used for wave-functions):
 
 getcut: wavevector=  0.0000  0.0000  0.0000  ngfft=  15  15  15
         ecut(hartree)=      8.000   => boxcut(ratio)=   2.29100
 
 getcut : COMMENT -
  Note that boxcut > 2.2 ; recall that boxcut=Gcut(box)/Gcut(sphere) = 2
  is sufficient for exact treatment of convolution.
  Such a large boxcut is a waste : you could raise ecut
  e.g. ecut=   10.497394 Hartrees makes boxcut=2
 
 
 Fine grid specifications (used for densities):
 
 getcut: wavevector=  0.0000  0.0000  0.0000  ngfft=  16  16  16
         ecut(hartree)=     12.000   => boxcut(ratio)=   2.12700
- pspini: atom type   1  psp file is ../../../Psps_for_tests/Cu_LDA_abinit
- pspatm: opening atomic psp file    ../../../Psps_for_tests/Cu_LDA_abinit
- Paw atomic data for element Cu - Generated by AtomPAW (N. Holzwarth) + AtomPAW2Abinit v3.1.1
- 29.00000  19.00000  20070404                znucl, zion, pspdat
    7    7    2    0      1445   0.00000      pspcod,pspxc,lmax,lloc,mmax,r2well
 Pseudopotential format is: paw3
 basis_size (lnmax)=  6 (lmn_size= 18), orbitals=   0   0   1   1   2   2
 Spheres core radius: rc_sph= 2.20631958
 3 radial meshes are used:
  - mesh 1: r(i)=AA*[exp(BB*(i-1))-1], size=1445 , AA= 0.22070E-03 BB= 0.64004E-02
  - mesh 2: r(i)=AA*[exp(BB*(i-1))-1], size=1440 , AA= 0.22070E-03 BB= 0.64004E-02
  - mesh 3: r(i)=AA*[exp(BB*(i-1))-1], size=1676 , AA= 0.22070E-03 BB= 0.64004E-02
 Shapefunction is SIN type: shapef(r)=[sin(pi*r/rshp)/(pi*r/rshp)]**2
 Radius for shape functions = sphere core radius
 Radial grid used for partial waves is grid 1
 Radial grid used for projectors is grid  2
 Radial grid used for (t)core density is grid 1
 Radial grid used for Vloc is grid 3
 Compensation charge density is taken into account in XC energy/potential
 beta integral value:      -0.545684E+02
 pspatm: atomic psp has been read  and splines computed
 
   1.01847678E+03                                ecore*ucvol(ha*bohr**3)
 ==== Info on pseudopotentials ====
  PAW calculation
  Number of pseudopotentials ..    1
  Number of types of atoms   ..    1
  Scalar calculation (no spin-orbit term)
  Nonlocal part applied using real spherical harmonics
  Max number of non-local projectors over l and type   2
  Highest angular momentum +1 .......   3
  Max number of (l,n)   components ..   6
  Max number of (l,m,n) components ..  18
 
 Pseudo-Core Charge Info: 
   Number of radial points for pseudo-core charge ..    1
   XC core-correction treatment (optnlxccc) ........    1
   Radius for pseudo-core charge for each type ..... 
 
  - Atom type    1 has pseudo-core radius ..  2.2781
 
 Info on the Q-grid used for form factors in spline form: 
   Number of q-points for radial functions ffspl ..   3001
   Number of q-points for vlspl ...................   3001
   vloc is computed in Reciprocal Space
 
  XC functional for type 1 is 7
 
 wfconv:    30 bands initialized randomly with npw=    65, for ikpt=     1
 wfconv:    30 bands initialized randomly with npw=    90, for ikpt=     2
 wfconv:    30 bands initialized randomly with npw=    92, for ikpt=     3
_setup2: Arith. and geom. avg. npw (full set) are      87.625      87.128
 
 PAW TEST:
 ==== setsym_ylm: rotation matrices in the basis ============
 ====              of real spherical harmonics    ============
  > Number of symmetries (nsym)=  48
   >For symmetry  1 ( 1 0 0 0 1 0 0 0 1)
    Rotation matrice for l=1:
    1.000    0.000    0.000
    0.000    1.000    0.000
    0.000    0.000    1.000
    Rotation matrice for l=2:
    1.000    0.000    0.000    0.000    0.000
    0.000    1.000    0.000    0.000    0.000
    0.000    0.000    1.000    0.000    0.000
    0.000    0.000    0.000    1.000    0.000
    0.000    0.000    0.000    0.000    1.000
   >For symmetry  2 (-1 0 0 0-1 0 0 0-1)
    Rotation matrice for l=1:
   -1.000    0.000    0.000
    0.000   -1.000    0.000
    0.000    0.000   -1.000
    Rotation matrice for l=2:
    1.000    0.000    0.000    0.000    0.000
    0.000    1.000    0.000    0.000    0.000
    0.000    0.000    1.000    0.000    0.000
    0.000    0.000    0.000    1.000    0.000
    0.000    0.000    0.000    0.000    1.000
   >For symmetry  3 ( 0 0 1-1-1-1 1 0 0)
    Rotation matrice for l=1:
   -1.000    0.000    0.000
    0.000   -1.000    0.000
    0.000    0.000    1.000
    Rotation matrice for l=2:
   -1.000    0.000    0.000    0.000    0.000
    0.000    1.000    0.000    0.000    0.000
    0.000    0.000    1.000    0.000    0.000
    0.000    0.000    0.000   -1.000    0.000
    0.000    0.000    0.000    0.000    1.000
   >For symmetry  4 ( 0 0-1 1 1 1-1 0 0)
    Rotation matrice for l=1:
    1.000    0.000    0.000
    0.000    1.000    0.000
    0.000    0.000   -1.000
    Rotation matrice for l=2:
   -1.000    0.000    0.000    0.000    0.000
    0.000    1.000    0.000    0.000    0.000
    0.000    0.000    1.000    0.000    0.000
    0.000    0.000    0.000   -1.000    0.000
    0.000    0.000    0.000    0.000    1.000
   >For symmetry  5 (-1-1-1 0 0 1 0 1 0)
    Rotation matrice for l=1:
   -1.000    0.000    0.000
    0.000    1.000    0.000
    0.000    0.000   -1.000
    Rotation matrice for l=2:
    1.000    0.000    0.000    0.000    0.000
    0.000   -1.000    0.000    0.000    0.000
    0.000    0.000    1.000    0.000    0.000
    0.000    0.000    0.000   -1.000    0.000
    0.000    0.000    0.000    0.000    1.000
   >For symmetry  6 ( 1 1 1 0 0-1 0-1 0)
    Rotation matrice for l=1:
    1.000    0.000    0.000
    0.000   -1.000    0.000
    0.000    0.000    1.000
    Rotation matrice for l=2:
    1.000    0.000    0.000    0.000    0.000
    0.000   -1.000    0.000    0.000    0.000
    0.000    0.000    1.000    0.000    0.000
    0.000    0.000    0.000   -1.000    0.000
    0.000    0.000    0.000    0.000    1.000
   >For symmetry  7 ( 0 1 0 1 0 0-1-1-1)
    Rotation matrice for l=1:
    1.000    0.000    0.000
    0.000   -1.000    0.000
    0.000    0.000   -1.000
    Rotation matrice for l=2:
   -1.000    0.000    0.000    0.000    0.000
    0.000   -1.000    0.000    0.000    0.000
    0.000    0.000    1.000    0.000    0.000
    0.000    0.000    0.000    1.000    0.000
    0.000    0.000    0.000    0.000    1.000
   >For symmetry  8 ( 0-1 0-1 0 0 1 1 1)
    Rotation matrice for l=1:
   -1.000    0.000    0.000
    0.000    1.000    0.000
    0.000    0.000    1.000
    Rotation matrice for l=2:
   -1.000    0.000    0.000    0.000    0.000
    0.000   -1.000    0.000    0.000    0.000
    0.000    0.000    1.000    0.000    0.000
    0.000    0.000    0.000    1.000    0.000
    0.000    0.000    0.000    0.000    1.000
   >For symmetry  9 (-1-1-1 0 1 0 0 0 1)
    Rotation matrice for l=1:
    0.000    0.000   -1.000
    0.000    1.000    0.000
   -1.000    0.000    0.000
    Rotation matrice for l=2:
    1.000    0.000    0.000    0.000    0.000
    0.000    0.000    0.000   -1.000    0.000
    0.000    0.000    1.000    0.000    0.000
    0.000   -1.000    0.000    0.000    0.000
    0.000    0.000    0.000    0.000   -1.000
   >For symmetry 10 ( 1 1 1 0-1 0 0 0-1)
    Rotation matrice for l=1:
    0.000    0.000    1.000
    0.000   -1.000    0.000
    1.000    0.000    0.000
    Rotation matrice for l=2:
    1.000    0.000    0.000    0.000    0.000
    0.000    0.000    0.000   -1.000    0.000
    0.000    0.000    1.000    0.000    0.000
    0.000   -1.000    0.000    0.000    0.000
    0.000    0.000    0.000    0.000   -1.000
   >For symmetry 11 ( 0 0 1 1 0 0-1-1-1)
    Rotation matrice for l=1:
    0.000    0.000    1.000
    0.000   -1.000    0.000
   -1.000    0.000    0.000
    Rotation matrice for l=2:
   -1.000    0.000    0.000    0.000    0.000
    0.000    0.000    0.000   -1.000    0.000
    0.000    0.000    1.000    0.000    0.000
    0.000    1.000    0.000    0.000    0.000
    0.000    0.000    0.000    0.000   -1.000
   >For symmetry 12 ( 0 0-1-1 0 0 1 1 1)
    Rotation matrice for l=1:
    0.000    0.000   -1.000
    0.000    1.000    0.000
    1.000    0.000    0.000
    Rotation matrice for l=2:
   -1.000    0.000    0.000    0.000    0.000
    0.000    0.000    0.000   -1.000    0.000
    0.000    0.000    1.000    0.000    0.000
    0.000    1.000    0.000    0.000    0.000
    0.000    0.000    0.000    0.000   -1.000
   >For symmetry 13 ( 1 0 0 0 0 1 0 1 0)
    Rotation matrice for l=1:
    0.000    0.000    1.000
    0.000    1.000    0.000
    1.000    0.000    0.000
    Rotation matrice for l=2:
    1.000    0.000    0.000    0.000    0.000
    0.000    0.000    0.000    1.000    0.000
    0.000    0.000    1.000    0.000    0.000
    0.000    1.000    0.000    0.000    0.000
    0.000    0.000    0.000    0.000   -1.000
   >For symmetry 14 (-1 0 0 0 0-1 0-1 0)
    Rotation matrice for l=1:
    0.000    0.000   -1.000
    0.000   -1.000    0.000
   -1.000    0.000    0.000
    Rotation matrice for l=2:
    1.000    0.000    0.000    0.000    0.000
    0.000    0.000    0.000    1.000    0.000
    0.000    0.000    1.000    0.000    0.000
    0.000    1.000    0.000    0.000    0.000
    0.000    0.000    0.000    0.000   -1.000
   >For symmetry 15 ( 0 1 0-1-1-1 1 0 0)
    Rotation matrice for l=1:
    0.000    0.000   -1.000
    0.000   -1.000    0.000
    1.000    0.000    0.000
    Rotation matrice for l=2:
   -1.000    0.000    0.000    0.000    0.000
    0.000    0.000    0.000    1.000    0.000
    0.000    0.000    1.000    0.000    0.000
    0.000   -1.000    0.000    0.000    0.000
    0.000    0.000    0.000    0.000   -1.000
   >For symmetry 16 ( 0-1 0 1 1 1-1 0 0)
    Rotation matrice for l=1:
    0.000    0.000    1.000
    0.000    1.000    0.000
   -1.000    0.000    0.000
    Rotation matrice for l=2:
   -1.000    0.000    0.000    0.000    0.000
    0.000    0.000    0.000    1.000    0.000
    0.000    0.000    1.000    0.000    0.000
    0.000   -1.000    0.000    0.000    0.000
    0.000    0.000    0.000    0.000   -1.000
   >For symmetry 17 ( 0 0 1 0 1 0-1-1-1)
    Rotation matrice for l=1:
    0.000    1.000    0.000
    0.000    0.000   -1.000
   -1.000    0.000    0.000
    Rotation matrice for l=2:
    0.000   -1.000    0.000    0.000    0.000
    0.000    0.000    0.000   -1.000    0.000
    0.000    0.000   -0.500    0.000    0.866
    1.000   -0.000    0.000    0.000    0.000
    0.000    0.000   -0.866    0.000   -0.500
   >For symmetry 18 ( 0 0-1 0-1 0 1 1 1)
    Rotation matrice for l=1:
    0.000   -1.000    0.000
    0.000    0.000    1.000
    1.000    0.000    0.000
    Rotation matrice for l=2:
    0.000   -1.000    0.000    0.000    0.000
    0.000    0.000    0.000   -1.000    0.000
    0.000    0.000   -0.500    0.000    0.866
    1.000   -0.000    0.000    0.000    0.000
    0.000    0.000   -0.866    0.000   -0.500
   >For symmetry 19 (-1-1-1 1 0 0 0 0 1)
    Rotation matrice for l=1:
    0.000   -1.000    0.000
    0.000    0.000    1.000
   -1.000    0.000    0.000
    Rotation matrice for l=2:
    0.000    1.000    0.000    0.000    0.000
    0.000    0.000    0.000   -1.000    0.000
    0.000    0.000   -0.500    0.000    0.866
   -1.000   -0.000    0.000    0.000    0.000
    0.000    0.000   -0.866    0.000   -0.500
   >For symmetry 20 ( 1 1 1-1 0 0 0 0-1)
    Rotation matrice for l=1:
    0.000    1.000    0.000
    0.000    0.000   -1.000
    1.000    0.000    0.000
    Rotation matrice for l=2:
    0.000    1.000    0.000    0.000    0.000
    0.000    0.000    0.000   -1.000    0.000
    0.000    0.000   -0.500    0.000    0.866
   -1.000   -0.000    0.000    0.000    0.000
    0.000    0.000   -0.866    0.000   -0.500
   >For symmetry 21 ( 1 0 0-1-1-1 0 1 0)
    Rotation matrice for l=1:
    0.000   -1.000    0.000
    0.000    0.000   -1.000
    1.000    0.000    0.000
    Rotation matrice for l=2:
    0.000   -1.000    0.000    0.000    0.000
    0.000    0.000    0.000    1.000    0.000
    0.000    0.000   -0.500    0.000    0.866
   -1.000    0.000    0.000    0.000    0.000
    0.000    0.000   -0.866    0.000   -0.500
   >For symmetry 22 (-1 0 0 1 1 1 0-1 0)
    Rotation matrice for l=1:
    0.000    1.000    0.000
    0.000    0.000    1.000
   -1.000    0.000    0.000
    Rotation matrice for l=2:
    0.000   -1.000    0.000    0.000    0.000
    0.000    0.000    0.000    1.000    0.000
    0.000    0.000   -0.500    0.000    0.866
   -1.000    0.000    0.000    0.000    0.000
    0.000    0.000   -0.866    0.000   -0.500
   >For symmetry 23 ( 0 1 0 0 0 1 1 0 0)
    Rotation matrice for l=1:
    0.000    1.000    0.000
    0.000    0.000    1.000
    1.000    0.000    0.000
    Rotation matrice for l=2:
    0.000    1.000    0.000    0.000    0.000
    0.000    0.000    0.000    1.000    0.000
    0.000    0.000   -0.500    0.000    0.866
    1.000    0.000    0.000    0.000    0.000
    0.000    0.000   -0.866    0.000   -0.500
   >For symmetry 24 ( 0-1 0 0 0-1-1 0 0)
    Rotation matrice for l=1:
    0.000   -1.000    0.000
    0.000    0.000   -1.000
   -1.000    0.000    0.000
    Rotation matrice for l=2:
    0.000    1.000    0.000    0.000    0.000
    0.000    0.000    0.000    1.000    0.000
    0.000    0.000   -0.500    0.000    0.866
    1.000    0.000    0.000    0.000    0.000
    0.000    0.000   -0.866    0.000   -0.500
   >For symmetry 25 ( 1 0 0 0 1 0-1-1-1)
    Rotation matrice for l=1:
    1.000    0.000    0.000
    0.000    0.000   -1.000
    0.000   -1.000    0.000
    Rotation matrice for l=2:
    0.000   -1.000    0.000    0.000    0.000
   -1.000   -0.000    0.000    0.000    0.000
    0.000    0.000   -0.500    0.000    0.866
    0.000    0.000    0.000    1.000    0.000
    0.000    0.000    0.866    0.000    0.500
   >For symmetry 26 (-1 0 0 0-1 0 1 1 1)
    Rotation matrice for l=1:
   -1.000    0.000    0.000
    0.000    0.000    1.000
    0.000    1.000    0.000
    Rotation matrice for l=2:
    0.000   -1.000    0.000    0.000    0.000
   -1.000   -0.000    0.000    0.000    0.000
    0.000    0.000   -0.500    0.000    0.866
    0.000    0.000    0.000    1.000    0.000
    0.000    0.000    0.866    0.000    0.500
   >For symmetry 27 (-1-1-1 0 0 1 1 0 0)
    Rotation matrice for l=1:
   -1.000    0.000    0.000
    0.000    0.000    1.000
    0.000   -1.000    0.000
    Rotation matrice for l=2:
    0.000    1.000    0.000    0.000    0.000
   -1.000    0.000    0.000    0.000    0.000
    0.000    0.000   -0.500    0.000    0.866
    0.000    0.000    0.000   -1.000    0.000
    0.000    0.000    0.866    0.000    0.500
   >For symmetry 28 ( 1 1 1 0 0-1-1 0 0)
    Rotation matrice for l=1:
    1.000    0.000    0.000
    0.000    0.000   -1.000
    0.000    1.000    0.000
    Rotation matrice for l=2:
    0.000    1.000    0.000    0.000    0.000
   -1.000    0.000    0.000    0.000    0.000
    0.000    0.000   -0.500    0.000    0.866
    0.000    0.000    0.000   -1.000    0.000
    0.000    0.000    0.866    0.000    0.500
   >For symmetry 29 ( 0 0 1-1-1-1 0 1 0)
    Rotation matrice for l=1:
   -1.000    0.000    0.000
    0.000    0.000   -1.000
    0.000    1.000    0.000
    Rotation matrice for l=2:
    0.000   -1.000    0.000    0.000    0.000
    1.000    0.000    0.000    0.000    0.000
    0.000    0.000   -0.500    0.000    0.866
    0.000    0.000    0.000   -1.000    0.000
    0.000    0.000    0.866    0.000    0.500
   >For symmetry 30 ( 0 0-1 1 1 1 0-1 0)
    Rotation matrice for l=1:
    1.000    0.000    0.000
    0.000    0.000    1.000
    0.000   -1.000    0.000
    Rotation matrice for l=2:
    0.000   -1.000    0.000    0.000    0.000
    1.000    0.000    0.000    0.000    0.000
    0.000    0.000   -0.500    0.000    0.866
    0.000    0.000    0.000   -1.000    0.000
    0.000    0.000    0.866    0.000    0.500
   >For symmetry 31 ( 0 1 0 1 0 0 0 0 1)
    Rotation matrice for l=1:
    1.000    0.000    0.000
    0.000    0.000    1.000
    0.000    1.000    0.000
    Rotation matrice for l=2:
    0.000    1.000    0.000    0.000    0.000
    1.000   -0.000    0.000    0.000    0.000
    0.000    0.000   -0.500    0.000    0.866
    0.000    0.000    0.000    1.000    0.000
    0.000    0.000    0.866    0.000    0.500
   >For symmetry 32 ( 0-1 0-1 0 0 0 0-1)
    Rotation matrice for l=1:
   -1.000    0.000    0.000
    0.000    0.000   -1.000
    0.000   -1.000    0.000
    Rotation matrice for l=2:
    0.000    1.000    0.000    0.000    0.000
    1.000   -0.000    0.000    0.000    0.000
    0.000    0.000   -0.500    0.000    0.866
    0.000    0.000    0.000    1.000    0.000
    0.000    0.000    0.866    0.000    0.500
   >For symmetry 33 (-1-1-1 0 1 0 1 0 0)
    Rotation matrice for l=1:
    0.000    0.000   -1.000
    1.000    0.000    0.000
    0.000   -1.000    0.000
    Rotation matrice for l=2:
    0.000    0.000    0.000    1.000    0.000
   -1.000    0.000    0.000   -0.000    0.000
    0.000    0.000   -0.500    0.000   -0.866
    0.000   -1.000    0.000    0.000    0.000
    0.000    0.000    0.866    0.000   -0.500
   >For symmetry 34 ( 1 1 1 0-1 0-1 0 0)
    Rotation matrice for l=1:
    0.000    0.000    1.000
   -1.000    0.000    0.000
    0.000    1.000    0.000
    Rotation matrice for l=2:
    0.000    0.000    0.000    1.000    0.000
   -1.000    0.000    0.000   -0.000    0.000
    0.000    0.000   -0.500    0.000   -0.866
    0.000   -1.000    0.000    0.000    0.000
    0.000    0.000    0.866    0.000   -0.500
   >For symmetry 35 ( 1 0 0 0 0 1-1-1-1)
    Rotation matrice for l=1:
    0.000    0.000    1.000
   -1.000    0.000    0.000
    0.000   -1.000    0.000
    Rotation matrice for l=2:
    0.000    0.000    0.000   -1.000    0.000
   -1.000    0.000    0.000    0.000    0.000
    0.000    0.000   -0.500    0.000   -0.866
    0.000    1.000    0.000    0.000    0.000
    0.000    0.000    0.866    0.000   -0.500
   >For symmetry 36 (-1 0 0 0 0-1 1 1 1)
    Rotation matrice for l=1:
    0.000    0.000   -1.000
    1.000    0.000    0.000
    0.000    1.000    0.000
    Rotation matrice for l=2:
    0.000    0.000    0.000   -1.000    0.000
   -1.000    0.000    0.000    0.000    0.000
    0.000    0.000   -0.500    0.000   -0.866
    0.000    1.000    0.000    0.000    0.000
    0.000    0.000    0.866    0.000   -0.500
   >For symmetry 37 ( 0 0 1 1 0 0 0 1 0)
    Rotation matrice for l=1:
    0.000    0.000    1.000
    1.000    0.000    0.000
    0.000    1.000    0.000
    Rotation matrice for l=2:
    0.000    0.000    0.000    1.000    0.000
    1.000    0.000    0.000    0.000    0.000
    0.000    0.000   -0.500    0.000   -0.866
    0.000    1.000    0.000    0.000    0.000
    0.000    0.000    0.866    0.000   -0.500
   >For symmetry 38 ( 0 0-1-1 0 0 0-1 0)
    Rotation matrice for l=1:
    0.000    0.000   -1.000
   -1.000    0.000    0.000
    0.000   -1.000    0.000
    Rotation matrice for l=2:
    0.000    0.000    0.000    1.000    0.000
    1.000    0.000    0.000    0.000    0.000
    0.000    0.000   -0.500    0.000   -0.866
    0.000    1.000    0.000    0.000    0.000
    0.000    0.000    0.866    0.000   -0.500
   >For symmetry 39 ( 0 1 0-1-1-1 0 0 1)
    Rotation matrice for l=1:
    0.000    0.000   -1.000
   -1.000    0.000    0.000
    0.000    1.000    0.000
    Rotation matrice for l=2:
    0.000    0.000    0.000   -1.000    0.000
    1.000    0.000    0.000   -0.000    0.000
    0.000    0.000   -0.500    0.000   -0.866
    0.000   -1.000    0.000    0.000    0.000
    0.000    0.000    0.866    0.000   -0.500
   >For symmetry 40 ( 0-1 0 1 1 1 0 0-1)
    Rotation matrice for l=1:
    0.000    0.000    1.000
    1.000    0.000    0.000
    0.000   -1.000    0.000
    Rotation matrice for l=2:
    0.000    0.000    0.000   -1.000    0.000
    1.000    0.000    0.000   -0.000    0.000
    0.000    0.000   -0.500    0.000   -0.866
    0.000   -1.000    0.000    0.000    0.000
    0.000    0.000    0.866    0.000   -0.500
   >For symmetry 41 ( 0 0 1 0 1 0 1 0 0)
    Rotation matrice for l=1:
    0.000    1.000    0.000
    1.000    0.000    0.000
    0.000    0.000    1.000
    Rotation matrice for l=2:
    0.000    0.000    0.000    1.000    0.000
    0.000    1.000    0.000    0.000    0.000
    0.000    0.000   -0.500    0.000   -0.866
    1.000    0.000    0.000   -0.000    0.000
    0.000    0.000   -0.866    0.000    0.500
   >For symmetry 42 ( 0 0-1 0-1 0-1 0 0)
    Rotation matrice for l=1:
    0.000   -1.000    0.000
   -1.000    0.000    0.000
    0.000    0.000   -1.000
    Rotation matrice for l=2:
    0.000    0.000    0.000    1.000    0.000
    0.000    1.000    0.000    0.000    0.000
    0.000    0.000   -0.500    0.000   -0.866
    1.000    0.000    0.000   -0.000    0.000
    0.000    0.000   -0.866    0.000    0.500
   >For symmetry 43 ( 1 0 0-1-1-1 0 0 1)
    Rotation matrice for l=1:
    0.000   -1.000    0.000
   -1.000    0.000    0.000
    0.000    0.000    1.000
    Rotation matrice for l=2:
    0.000    0.000    0.000   -1.000    0.000
    0.000    1.000    0.000    0.000    0.000
    0.000    0.000   -0.500    0.000   -0.866
   -1.000    0.000    0.000   -0.000    0.000
    0.000    0.000   -0.866    0.000    0.500
   >For symmetry 44 (-1 0 0 1 1 1 0 0-1)
    Rotation matrice for l=1:
    0.000    1.000    0.000
    1.000    0.000    0.000
    0.000    0.000   -1.000
    Rotation matrice for l=2:
    0.000    0.000    0.000   -1.000    0.000
    0.000    1.000    0.000    0.000    0.000
    0.000    0.000   -0.500    0.000   -0.866
   -1.000    0.000    0.000   -0.000    0.000
    0.000    0.000   -0.866    0.000    0.500
   >For symmetry 45 (-1-1-1 1 0 0 0 1 0)
    Rotation matrice for l=1:
    0.000   -1.000    0.000
    1.000    0.000    0.000
    0.000    0.000   -1.000
    Rotation matrice for l=2:
    0.000    0.000    0.000    1.000    0.000
    0.000   -1.000    0.000    0.000    0.000
    0.000    0.000   -0.500    0.000   -0.866
   -1.000    0.000    0.000    0.000    0.000
    0.000    0.000   -0.866    0.000    0.500
   >For symmetry 46 ( 1 1 1-1 0 0 0-1 0)
    Rotation matrice for l=1:
    0.000    1.000    0.000
   -1.000    0.000    0.000
    0.000    0.000    1.000
    Rotation matrice for l=2:
    0.000    0.000    0.000    1.000    0.000
    0.000   -1.000    0.000    0.000    0.000
    0.000    0.000   -0.500    0.000   -0.866
   -1.000    0.000    0.000    0.000    0.000
    0.000    0.000   -0.866    0.000    0.500
   >For symmetry 47 ( 0 1 0 0 0 1-1-1-1)
    Rotation matrice for l=1:
    0.000    1.000    0.000
   -1.000    0.000    0.000
    0.000    0.000   -1.000
    Rotation matrice for l=2:
    0.000    0.000    0.000   -1.000    0.000
    0.000   -1.000    0.000    0.000    0.000
    0.000    0.000   -0.500    0.000   -0.866
    1.000    0.000    0.000    0.000    0.000
    0.000    0.000   -0.866    0.000    0.500
   >For symmetry 48 ( 0-1 0 0 0-1 1 1 1)
    Rotation matrice for l=1:
    0.000   -1.000    0.000
    1.000    0.000    0.000
    0.000    0.000    1.000
    Rotation matrice for l=2:
    0.000    0.000    0.000   -1.000    0.000
    0.000   -1.000    0.000    0.000    0.000
    0.000    0.000   -0.500    0.000   -0.866
    1.000    0.000    0.000    0.000    0.000
    0.000    0.000   -0.866    0.000    0.500
 initro: for itypat=  1, take decay length=      0.6000,
 initro: indeed, coreel=     10.0000, nval= 19 and densty=  0.0000E+00.
 
================================================================================
 FFT (fine) grid used in SCF cycle:
 
 getcut: wavevector=  0.0000  0.0000  0.0000  ngfft=  16  16  16
         ecut(hartree)=     12.000   => boxcut(ratio)=   2.12700
 
 PAW TEST:
 ====== Moments of (n1-tn1) =========
 The moments of (n1-tn1-nhat1) must be very small...
 
 Atom   1 (ispden=1):
  ******* Moment of (n1-tn1)  ** Moment of (n1-tn1-nhat1)
   l,m= 0 0: M= 4.0950915E+00 **    M= 8.8817842E-16
   l,m= 1-1: M= 0.0000000E+00 **    M= 0.0000000E+00
   l,m= 1 0: M= 0.0000000E+00 **    M= 0.0000000E+00
   l,m= 1 1: M= 0.0000000E+00 **    M= 0.0000000E+00
   l,m= 2-2: M= 0.0000000E+00 **    M= 0.0000000E+00
   l,m= 2-1: M= 0.0000000E+00 **    M= 0.0000000E+00
   l,m= 2 0: M= 1.1267227E-16 **    M= 7.0824041E-19
   l,m= 2 1: M= 0.0000000E+00 **    M= 0.0000000E+00
   l,m= 2 2: M= 0.0000000E+00 **    M= 0.0000000E+00
   l,m= 3-3: M= 0.0000000E+00 **    M= 0.0000000E+00
   l,m= 3-2: M= 0.0000000E+00 **    M= 0.0000000E+00
   l,m= 3-1: M= 0.0000000E+00 **    M= 0.0000000E+00
   l,m= 3 0: M= 0.0000000E+00 **    M= 0.0000000E+00
   l,m= 3 1: M= 0.0000000E+00 **    M= 0.0000000E+00
   l,m= 3 2: M= 0.0000000E+00 **    M= 0.0000000E+00
   l,m= 3 3: M= 0.0000000E+00 **    M= 0.0000000E+00
   l,m= 4-4: M= 0.0000000E+00 **    M= 0.0000000E+00
   l,m= 4-3: M= 0.0000000E+00 **    M= 0.0000000E+00
   l,m= 4-2: M= 0.0000000E+00 **    M= 0.0000000E+00
   l,m= 4-1: M= 0.0000000E+00 **    M= 0.0000000E+00
   l,m= 4 0: M= 6.4921977E-17 **    M=-2.0945996E-17
   l,m= 4 1: M= 0.0000000E+00 **    M= 0.0000000E+00
   l,m= 4 2: M= 0.0000000E+00 **    M= 0.0000000E+00
   l,m= 4 3: M= 0.0000000E+00 **    M= 0.0000000E+00
   l,m= 4 4: M= 0.0000000E+00 **    M= 0.0000000E+00
 average electrostatic smooth potential [Ha] , [eV]      0.000000        0.000000
 
 ==== Values of psp strength Dij (Hartree) ============
 
 >>>>>>>>>> Atom   1:
   ************ Dij atomic (Dij0) ***********
  -7.46396   0.89646   0.00000   0.00000   0.00000   0.00000   0.00000   0.00000   0.00000   0.00000   0.00000   0.00000 ...
   0.89646  -0.06010   0.00000   0.00000   0.00000   0.00000   0.00000   0.00000   0.00000   0.00000   0.00000   0.00000 ...
   0.00000   0.00000  -5.98918   0.00000   0.00000   0.43907   0.00000   0.00000   0.00000   0.00000   0.00000   0.00000 ...
   0.00000   0.00000   0.00000  -5.98918   0.00000   0.00000   0.43907   0.00000   0.00000   0.00000   0.00000   0.00000 ...
   0.00000   0.00000   0.00000   0.00000  -5.98918   0.00000   0.00000   0.43907   0.00000   0.00000   0.00000   0.00000 ...
   0.00000   0.00000   0.43907   0.00000   0.00000  -0.04045   0.00000   0.00000   0.00000   0.00000   0.00000   0.00000 ...
   0.00000   0.00000   0.00000   0.43907   0.00000   0.00000  -0.04045   0.00000   0.00000   0.00000   0.00000   0.00000 ...
   0.00000   0.00000   0.00000   0.00000   0.43907   0.00000   0.00000  -0.04045   0.00000   0.00000   0.00000   0.00000 ...
   0.00000   0.00000   0.00000   0.00000   0.00000   0.00000   0.00000   0.00000  -2.95242   0.00000   0.00000   0.00000 ...
   0.00000   0.00000   0.00000   0.00000   0.00000   0.00000   0.00000   0.00000   0.00000  -2.95242   0.00000   0.00000 ...
   0.00000   0.00000   0.00000   0.00000   0.00000   0.00000   0.00000   0.00000   0.00000   0.00000  -2.95242   0.00000 ...
   0.00000   0.00000   0.00000   0.00000   0.00000   0.00000   0.00000   0.00000   0.00000   0.00000   0.00000  -2.95242 ...
   ...  only 12  components have been written...
   ************** Dij Hartree ***************
   6.37575  -1.13141   0.00000   0.00000   0.00000   0.00000   0.00000   0.00000   0.00000   0.00000   0.00000   0.00000 ...
  -1.13141   0.22289   0.00000   0.00000   0.00000   0.00000   0.00000   0.00000   0.00000   0.00000  -0.00000   0.00000 ...
   0.00000   0.00000   6.20307   0.00000   0.00000  -0.63613   0.00000   0.00000   0.00000   0.00000   0.00000   0.00000 ...
   0.00000   0.00000   0.00000   6.20307   0.00000   0.00000  -0.63613   0.00000   0.00000   0.00000   0.00000   0.00000 ...
   0.00000   0.00000   0.00000   0.00000   6.20307   0.00000   0.00000  -0.63613   0.00000   0.00000   0.00000   0.00000 ...
   0.00000   0.00000  -0.63613   0.00000   0.00000   0.07625   0.00000   0.00000   0.00000   0.00000   0.00000   0.00000 ...
   0.00000   0.00000   0.00000  -0.63613   0.00000   0.00000   0.07625   0.00000   0.00000   0.00000   0.00000   0.00000 ...
   0.00000   0.00000   0.00000   0.00000  -0.63613   0.00000   0.00000   0.07625   0.00000   0.00000   0.00000   0.00000 ...
   0.00000   0.00000   0.00000   0.00000   0.00000   0.00000   0.00000   0.00000   4.69069   0.00000   0.00000   0.00000 ...
   0.00000   0.00000   0.00000   0.00000   0.00000   0.00000   0.00000   0.00000   0.00000   4.69069   0.00000   0.00000 ...
   0.00000  -0.00000   0.00000   0.00000   0.00000   0.00000   0.00000   0.00000   0.00000   0.00000   4.69069   0.00000 ...
   0.00000   0.00000   0.00000   0.00000   0.00000   0.00000   0.00000   0.00000   0.00000   0.00000   0.00000   4.69069 ...
   ...  only 12  components have been written...
   **************** Dij_hat *****************
  -2.11870   0.34530  -0.00000  -0.00000  -0.00000   0.00000   0.00000   0.00000   0.00000   0.00000  -0.00000   0.00000 ...
   0.34530   0.05750   0.00000   0.00000   0.00000   0.00000   0.00000   0.00000   0.00000   0.00000  -0.00000   0.00000 ...
  -0.00000   0.00000  -2.20622   0.00000   0.00000   0.17865  -0.00000  -0.00000  -0.00000  -0.00000   0.00000   0.00000 ...
  -0.00000   0.00000   0.00000  -2.20622   0.00000  -0.00000   0.17865  -0.00000   0.00000  -0.00000  -0.00000  -0.00000 ...
  -0.00000   0.00000   0.00000   0.00000  -2.20622  -0.00000  -0.00000   0.17865  -0.00000   0.00000   0.00000  -0.00000 ...
   0.00000   0.00000   0.17865  -0.00000  -0.00000  -0.00247  -0.00000  -0.00000   0.00000   0.00000  -0.00000   0.00000 ...
   0.00000   0.00000  -0.00000   0.17865  -0.00000  -0.00000  -0.00247  -0.00000   0.00000   0.00000   0.00000   0.00000 ...
   0.00000   0.00000  -0.00000  -0.00000   0.17865  -0.00000  -0.00000  -0.00247   0.00000   0.00000  -0.00000   0.00000 ...
   0.00000   0.00000  -0.00000   0.00000  -0.00000   0.00000   0.00000   0.00000  -1.78039   0.00000  -0.00000   0.00000 ...
   0.00000   0.00000  -0.00000  -0.00000   0.00000   0.00000   0.00000   0.00000   0.00000  -1.78039   0.00000   0.00000 ...
  -0.00000  -0.00000   0.00000  -0.00000   0.00000  -0.00000   0.00000  -0.00000  -0.00000   0.00000  -1.78035   0.00000 ...
   0.00000   0.00000   0.00000  -0.00000  -0.00000   0.00000   0.00000   0.00000   0.00000   0.00000   0.00000  -1.78039 ...
   ...  only 12  components have been written...
   ***************** Dij_xc *****************
  -0.71966   0.17425   0.00000   0.00000   0.00000   0.00000   0.00000   0.00000   0.00000   0.00000  -0.00000   0.00000 ...
   0.17425   0.00970   0.00000   0.00000   0.00000   0.00000   0.00000   0.00000   0.00000   0.00000   0.00000   0.00000 ...
   0.00000   0.00000  -0.67496   0.00000   0.00000   0.09295   0.00000   0.00000   0.00000   0.00000   0.00000   0.00000 ...
   0.00000   0.00000   0.00000  -0.67496   0.00000   0.00000   0.09295   0.00000   0.00000   0.00000   0.00000   0.00000 ...
   0.00000   0.00000   0.00000   0.00000  -0.67496   0.00000   0.00000   0.09295   0.00000   0.00000   0.00000   0.00000 ...
   0.00000   0.00000   0.09295   0.00000   0.00000  -0.00126   0.00000   0.00000   0.00000   0.00000   0.00000   0.00000 ...
   0.00000   0.00000   0.00000   0.09295   0.00000   0.00000  -0.00126   0.00000   0.00000   0.00000   0.00000   0.00000 ...
   0.00000   0.00000   0.00000   0.00000   0.09295   0.00000   0.00000  -0.00126   0.00000   0.00000   0.00000   0.00000 ...
   0.00000   0.00000   0.00000   0.00000   0.00000   0.00000   0.00000   0.00000  -0.39304   0.00000   0.00000   0.00000 ...
   0.00000   0.00000   0.00000   0.00000   0.00000   0.00000   0.00000   0.00000   0.00000  -0.39304   0.00000   0.00000 ...
  -0.00000   0.00000   0.00000   0.00000   0.00000   0.00000   0.00000   0.00000   0.00000   0.00000  -0.39304   0.00000 ...
   0.00000   0.00000   0.00000   0.00000   0.00000   0.00000   0.00000   0.00000   0.00000   0.00000   0.00000  -0.39304 ...
   ...  only 12  components have been written...
   **********    TOTAL Dij in Ha   **********
  -3.92657   0.28461  -0.00000  -0.00000  -0.00000   0.00000   0.00000   0.00000   0.00000   0.00000  -0.00000   0.00000 ...
   0.28461   0.23000   0.00000   0.00000   0.00000   0.00000   0.00000   0.00000   0.00000   0.00000  -0.00000   0.00000 ...
  -0.00000   0.00000  -2.66730   0.00000   0.00000   0.07454  -0.00000  -0.00000  -0.00000  -0.00000   0.00000   0.00000 ...
  -0.00000   0.00000   0.00000  -2.66730   0.00000  -0.00000   0.07454  -0.00000   0.00000  -0.00000  -0.00000  -0.00000 ...
  -0.00000   0.00000   0.00000   0.00000  -2.66730  -0.00000  -0.00000   0.07454  -0.00000   0.00000   0.00000  -0.00000 ...
   0.00000   0.00000   0.07454  -0.00000  -0.00000   0.03208  -0.00000  -0.00000   0.00000   0.00000  -0.00000   0.00000 ...
   0.00000   0.00000  -0.00000   0.07454  -0.00000  -0.00000   0.03208  -0.00000   0.00000   0.00000   0.00000   0.00000 ...
   0.00000   0.00000  -0.00000  -0.00000   0.07454  -0.00000  -0.00000   0.03208   0.00000   0.00000  -0.00000   0.00000 ...
   0.00000   0.00000  -0.00000   0.00000  -0.00000   0.00000   0.00000   0.00000  -0.43516   0.00000  -0.00000   0.00000 ...
   0.00000   0.00000  -0.00000  -0.00000   0.00000   0.00000   0.00000   0.00000   0.00000  -0.43516   0.00000   0.00000 ...
  -0.00000  -0.00000   0.00000  -0.00000   0.00000  -0.00000   0.00000  -0.00000  -0.00000   0.00000  -0.43511   0.00000 ...
   0.00000   0.00000   0.00000  -0.00000  -0.00000   0.00000   0.00000   0.00000   0.00000   0.00000   0.00000  -0.43516 ...
   ...  only 12  components have been written...
 
 
 PAW TEST:
 ========= Values of DIJ in symdij (Hartree) =========
 
  -3.92657   0.28461   0.00000   0.00000   0.00000   0.00000   0.00000   0.00000   0.00000   0.00000   0.00000   0.00000 ...
   0.28461   0.23000   0.00000   0.00000   0.00000   0.00000   0.00000   0.00000   0.00000   0.00000   0.00000   0.00000 ...
   0.00000   0.00000  -2.66730   0.00000   0.00000   0.07454   0.00000   0.00000   0.00000   0.00000   0.00000   0.00000 ...
   0.00000   0.00000   0.00000  -2.66730   0.00000   0.00000   0.07454   0.00000   0.00000   0.00000   0.00000   0.00000 ...
   0.00000   0.00000   0.00000   0.00000  -2.66730   0.00000   0.00000   0.07454   0.00000   0.00000   0.00000   0.00000 ...
   0.00000   0.00000   0.07454   0.00000   0.00000   0.03208   0.00000   0.00000   0.00000   0.00000   0.00000   0.00000 ...
   0.00000   0.00000   0.00000   0.07454   0.00000   0.00000   0.03208   0.00000   0.00000   0.00000   0.00000   0.00000 ...
   0.00000   0.00000   0.00000   0.00000   0.07454   0.00000   0.00000   0.03208   0.00000   0.00000   0.00000   0.00000 ...
   0.00000   0.00000   0.00000   0.00000   0.00000   0.00000   0.00000   0.00000  -0.43516   0.00000   0.00000   0.00000 ...
   0.00000   0.00000   0.00000   0.00000   0.00000   0.00000   0.00000   0.00000   0.00000  -0.43516   0.00000   0.00000 ...
   0.00000   0.00000   0.00000   0.00000   0.00000   0.00000   0.00000   0.00000   0.00000   0.00000  -0.43511   0.00000 ...
   0.00000   0.00000   0.00000   0.00000   0.00000   0.00000   0.00000   0.00000   0.00000   0.00000   0.00000  -0.43516 ...
   ...  only 12  components have been written...
 
 
 ITER STEP NUMBER     1
 vtorho : nnsclo_now=2, note that nnsclo,dbl_nnsclo,istep=2 0 1
 newocc: new Fermi energy is       0.363002 , with nelect=     19.000000
  Number of bissection calls =  50
 newocc : computed new occ. numbers for occopt= 3 , spin-unpolarized case.
 2.000 2.000 2.000 2.000 2.000 2.000 2.000 2.000 2.000 2.000 0.000 0.000
 0.000 0.000 0.000 0.000 0.000 0.000 0.000 0.000 0.000 0.000 0.000 0.000
 0.000 0.000 0.000 0.000 0.000 0.000
 2.000 2.000 2.000 2.000 2.000 2.000 2.000 2.000 2.000 1.500 0.000 0.000
 0.000 0.000 0.000 0.000 0.000 0.000 0.000 0.000 0.000 0.000 0.000 0.000
 0.000 0.000 0.000 0.000 0.000 0.000
 2.000 2.000 2.000 2.000 2.000 2.000 2.000 2.000 2.000 0.000 0.000 0.000
 0.000 0.000 0.000 0.000 0.000 0.000 0.000 0.000 0.000 0.000 0.000 0.000
 0.000 0.000 0.000 0.000 0.000 0.000
mkrho: echo density (plane-wave part only)
 Total charge density [el/Bohr^3]
      Maximum=    1.2293E-01  at reduced coord.    0.0000    0.2000    0.8000
      Minimum=    1.0060E-02  at reduced coord.    0.5333    0.4667    0.4667
   Integrated=    3.3455E+00
 
 PAW TEST:
 ====== Values of RHOIJ in pawmkrhoij (iatom=  1) ======
   1.99750  -0.00987   0.00257   0.00082   0.00138   0.04737   0.01978   0.02091  -0.00369   0.00455   0.00447   0.00586 ...
  -0.00987   1.60066   0.02482   0.01227   0.03011   0.36258  -0.38373   0.33874  -0.08706   0.04525  -0.01440   0.04603 ...
   0.00257   0.02482   1.94592   0.00632  -0.00476  -0.61676   0.06063  -0.05227  -0.00690  -0.00429   0.00197  -0.00124 ...
   0.00082   0.01227   0.00632   1.95566  -0.00225   0.14800  -0.48381  -0.00471  -0.00239   0.00136   0.00465   0.00134 ...
   0.00138   0.03011  -0.00476  -0.00225   1.97015  -0.06924  -0.01012  -0.38444   0.00971  -0.00210  -0.00270  -0.00087 ...
   0.04737   0.36258  -0.61676   0.14800  -0.06924   0.52114  -0.30006   0.25107  -0.04659   0.02613  -0.02641   0.06996 ...
   0.01978  -0.38373   0.06063  -0.48381  -0.01012  -0.30006   0.50921  -0.20457   0.02578  -0.02124   0.06670   0.02218 ...
   0.02091   0.33874  -0.05227  -0.00471  -0.38444   0.25107  -0.20457   0.38516   0.15190   0.04698   0.11691   0.08882 ...
  -0.00369  -0.08706  -0.00690  -0.00239   0.00971  -0.04659   0.02578   0.15190   1.93397  -0.00781   0.01996  -0.01651 ...
   0.00455   0.04525  -0.00429   0.00136  -0.00210   0.02613  -0.02124   0.04698  -0.00781   1.95563   0.02673  -0.01257 ...
   0.00447  -0.01440   0.00197   0.00465  -0.00270  -0.02641   0.06670   0.11691   0.01996   0.02673   1.90483  -0.01615 ...
   0.00586   0.04603  -0.00124   0.00134  -0.00087   0.06996   0.02218   0.08882  -0.01651  -0.01257  -0.01615   1.92382 ...
   ...  only 12  components have been written...
 
 PAW TEST:
 ====== Values of RHOIJ in symrhoij (iatom=  1) ======
 
 *********** RHOIJ (atom   1) **********
   1.99750  -0.00987   0.00000   0.00000   0.00000   0.00000   0.00000   0.00000   0.00000   0.00000   0.00000   0.00000 ...
  -0.00987   1.60066   0.00000   0.00000   0.00000   0.00000   0.00000   0.00000   0.00000   0.00000   0.00000   0.00000 ...
   0.00000   0.00000   1.95724   0.00000   0.00000  -0.49500   0.00000   0.00000   0.00000   0.00000   0.00000   0.00000 ...
   0.00000   0.00000   0.00000   1.95724   0.00000   0.00000  -0.49500   0.00000   0.00000   0.00000   0.00000   0.00000 ...
   0.00000   0.00000   0.00000   0.00000   1.95724   0.00000   0.00000  -0.49500   0.00000   0.00000   0.00000   0.00000 ...
   0.00000   0.00000  -0.49500   0.00000   0.00000   0.47184   0.00000   0.00000   0.00000   0.00000   0.00000   0.00000 ...
   0.00000   0.00000   0.00000  -0.49500   0.00000   0.00000   0.47184   0.00000   0.00000   0.00000   0.00000   0.00000 ...
   0.00000   0.00000   0.00000   0.00000  -0.49500   0.00000   0.00000   0.47184   0.00000   0.00000   0.00000   0.00000 ...
   0.00000   0.00000   0.00000   0.00000   0.00000   0.00000   0.00000   0.00000   1.93781   0.00000   0.00000   0.00000 ...
   0.00000   0.00000   0.00000   0.00000   0.00000   0.00000   0.00000   0.00000   0.00000   1.93781   0.00000   0.00000 ...
   0.00000   0.00000   0.00000   0.00000   0.00000   0.00000   0.00000   0.00000   0.00000   0.00000   1.88990   0.00000 ...
   0.00000   0.00000   0.00000   0.00000   0.00000   0.00000   0.00000   0.00000   0.00000   0.00000   0.00000   1.93781 ...
   ...  only 12  components have been written...
 
 Total charge density [el/Bohr^3]
      Maximum=    2.3646E+00  at reduced coord.    0.0000    0.0000    0.0000
      Minimum=    9.5726E-03  at reduced coord.    0.5000    0.5000    0.5000
   Integrated=    1.9000E+01
 ETOT  1  -196.93284332054    -1.969E+02 7.103E+01 3.690E+01
 scprqt: <Vxc>= -5.7957544E-01 hartree
 
Simple mixing update:
  residual square of the potential :  2.917676616129817E-003
  rhotov : is_hybrid_ncpp= F
  rhotov : n3xccc=           0
 scfcv_core: previous iteration took 00 [s]
 
 PAW TEST:
 ====== Moments of (n1-tn1) =========
 The moments of (n1-tn1-nhat1) must be very small...
 
 Atom   1 (ispden=1):
  ******* Moment of (n1-tn1)  ** Moment of (n1-tn1-nhat1)
   l,m= 0 0: M= 4.3197563E+00 **    M= 8.8817842E-16
   l,m= 1-1: M= 0.0000000E+00 **    M= 0.0000000E+00
   l,m= 1 0: M= 0.0000000E+00 **    M= 0.0000000E+00
   l,m= 1 1: M= 0.0000000E+00 **    M= 0.0000000E+00
   l,m= 2-2: M= 0.0000000E+00 **    M= 0.0000000E+00
   l,m= 2-1: M= 0.0000000E+00 **    M= 0.0000000E+00
   l,m= 2 0: M= 2.0940610E-16 **    M=-2.6633966E-17
   l,m= 2 1: M= 0.0000000E+00 **    M= 0.0000000E+00
   l,m= 2 2: M= 2.9156890E-17 **    M=-1.3949641E-18
   l,m= 3-3: M= 0.0000000E+00 **    M= 0.0000000E+00
   l,m= 3-2: M= 0.0000000E+00 **    M= 0.0000000E+00
   l,m= 3-1: M= 0.0000000E+00 **    M= 0.0000000E+00
   l,m= 3 0: M= 0.0000000E+00 **    M= 0.0000000E+00
   l,m= 3 1: M= 0.0000000E+00 **    M= 0.0000000E+00
   l,m= 3 2: M= 0.0000000E+00 **    M= 0.0000000E+00
   l,m= 3 3: M= 0.0000000E+00 **    M= 0.0000000E+00
   l,m= 4-4: M= 0.0000000E+00 **    M= 0.0000000E+00
   l,m= 4-3: M= 0.0000000E+00 **    M= 0.0000000E+00
   l,m= 4-2: M= 0.0000000E+00 **    M= 0.0000000E+00
   l,m= 4-1: M= 0.0000000E+00 **    M= 0.0000000E+00
   l,m= 4 0: M=-1.5532938E-03 **    M= 4.5536491E-18
   l,m= 4 1: M= 0.0000000E+00 **    M= 0.0000000E+00
   l,m= 4 2: M= 3.2229507E-17 **    M= 2.5912083E-18
   l,m= 4 3: M= 0.0000000E+00 **    M= 0.0000000E+00
   l,m= 4 4: M=-1.3127729E-03 **    M= 2.0383001E-17
 average electrostatic smooth potential [Ha] , [eV]      0.000000        0.000000
 
 ==== Values of psp strength Dij (Hartree) ============
 
 >>>>>>>>>> Atom   1:
   ************ Dij atomic (Dij0) ***********
  -7.46396   0.89646   0.00000   0.00000   0.00000   0.00000   0.00000   0.00000   0.00000   0.00000   0.00000   0.00000 ...
   0.89646  -0.06010   0.00000   0.00000   0.00000   0.00000   0.00000   0.00000   0.00000   0.00000   0.00000   0.00000 ...
   0.00000   0.00000  -5.98918   0.00000   0.00000   0.43907   0.00000   0.00000   0.00000   0.00000   0.00000   0.00000 ...
   0.00000   0.00000   0.00000  -5.98918   0.00000   0.00000   0.43907   0.00000   0.00000   0.00000   0.00000   0.00000 ...
   0.00000   0.00000   0.00000   0.00000  -5.98918   0.00000   0.00000   0.43907   0.00000   0.00000   0.00000   0.00000 ...
[...]
                       0.000000  0.000000  0.000000  0.000000  0.000000  0.000000
                       0.000000  0.000000  0.000000  0.000000  0.000000  0.000000
                       2.000000  2.000000  2.000000  2.000000  2.000000  2.000000
                       2.000000  1.996057  1.996057  1.526847  0.000000  0.000000
                       0.000000  0.000000  0.000000  0.000000  0.000000  0.000000
                       0.000000  0.000000  0.000000  0.000000  0.000000  0.000000
                       0.000000  0.000000  0.000000  0.000000  0.000000  0.000000
                       2.000000  2.000000  2.000000  2.000000  2.000000  2.000000
                       1.996724  1.989027  1.989027  0.000000  0.000000  0.000000
                       0.000000  0.000000  0.000000  0.000000  0.000000  0.000000
                       0.000000  0.000000  0.000000  0.000000  0.000000  0.000000
                       0.000000  0.000000  0.000000  0.000000  0.000000  0.000000
              occ2     2.000000  2.000000  2.000000  2.000000  2.000000  2.000000
                       2.000000  2.000000  1.999855  1.999855  0.000000  0.000000
                       0.000000  0.000000  0.000000  0.000000  0.000000  0.000000
                       0.000000  0.000000  0.000000  0.000000  0.000000  0.000000
                       0.000000  0.000000  0.000000  0.000000  0.000000  0.000000
                       2.000000  2.000000  2.000000  2.000000  2.000000  2.000000
                       2.000000  1.993416  1.993415  1.545005  0.000000  0.000000
                       0.000000  0.000000  0.000000  0.000000  0.000000  0.000000
                       0.000000  0.000000  0.000000  0.000000  0.000000  0.000000
                       0.000000  0.000000  0.000000  0.000000  0.000000  0.000000
                       2.000000  2.000000  2.000000  2.000000  2.000000  2.000000
                       2.000000  1.993418  1.993415  1.545159  0.000000  0.000000
                       0.000000  0.000000  0.000000  0.000000  0.000000  0.000000
                       0.000000  0.000000  0.000000  0.000000  0.000000  0.000000
                       0.000000  0.000000  0.000000  0.000000  0.000000  0.000000
                       2.000000  2.000000  2.000000  2.000000  2.000000  2.000000
                       1.994572  1.981468  1.981460  0.000000  0.000000  0.000000
                       0.000000  0.000000  0.000000  0.000000  0.000000  0.000000
                       0.000000  0.000000  0.000000  0.000000  0.000000  0.000000
                       0.000000  0.000000  0.000000  0.000000  0.000000  0.000000
                       2.000000  2.000000  2.000000  2.000000  2.000000  2.000000
                       2.000000  1.993419  1.993414  1.545145  0.000000  0.000000
                       0.000000  0.000000  0.000000  0.000000  0.000000  0.000000
                       0.000000  0.000000  0.000000  0.000000  0.000000  0.000000
                       0.000000  0.000000  0.000000  0.000000  0.000000  0.000000
                       2.000000  2.000000  2.000000  2.000000  2.000000  2.000000
                       1.994573  1.981466  1.981458  0.000000  0.000000  0.000000
                       0.000000  0.000000  0.000000  0.000000  0.000000  0.000000
                       0.000000  0.000000  0.000000  0.000000  0.000000  0.000000
                       0.000000  0.000000  0.000000  0.000000  0.000000  0.000000
                       2.000000  2.000000  2.000000  2.000000  2.000000  2.000000
                       1.994571  1.981470  1.981461  0.000000  0.000000  0.000000
                       0.000000  0.000000  0.000000  0.000000  0.000000  0.000000
                       0.000000  0.000000  0.000000  0.000000  0.000000  0.000000
                       0.000000  0.000000  0.000000  0.000000  0.000000  0.000000
                       2.000000  2.000000  2.000000  2.000000  2.000000  2.000000
                       2.000000  1.993418  1.993414  1.545156  0.000000  0.000000
                       0.000000  0.000000  0.000000  0.000000  0.000000  0.000000
                       0.000000  0.000000  0.000000  0.000000  0.000000  0.000000
                       0.000000  0.000000  0.000000  0.000000  0.000000  0.000000
              occ3     2.000000  2.000000  2.000000  2.000000  2.000000  2.000000
                       2.000000  2.000000  1.999855  1.999855  0.000000  0.000000
                       0.000000  0.000000  0.000000  0.000000  0.000000  0.000000
                       0.000000  0.000000  0.000000  0.000000  0.000000  0.000000
                       0.000000  0.000000  0.000000  0.000000  0.000000  0.000000
                       2.000000  2.000000  2.000000  2.000000  2.000000  2.000000
                       2.000000  1.993407  1.993407  1.545216  0.000000  0.000000
                       0.000000  0.000000  0.000000  0.000000  0.000000  0.000000
                       0.000000  0.000000  0.000000  0.000000  0.000000  0.000000
                       0.000000  0.000000  0.000000  0.000000  0.000000  0.000000
                       2.000000  2.000000  2.000000  2.000000  2.000000  2.000000
                       2.000000  1.993407  1.993406  1.545170  0.000000  0.000000
                       0.000000  0.000000  0.000000  0.000000  0.000000  0.000000
                       0.000000  0.000000  0.000000  0.000000  0.000000  0.000000
                       0.000000  0.000000  0.000000  0.000000  0.000000  0.000000
                       2.000000  2.000000  2.000000  2.000000  2.000000  2.000000
                       1.994564  1.981437  1.981435  0.000000  0.000000  0.000000
                       0.000000  0.000000  0.000000  0.000000  0.000000  0.000000
                       0.000000  0.000000  0.000000  0.000000  0.000000  0.000000
                       0.000000  0.000000  0.000000  0.000000  0.000000  0.000000
                       2.000000  2.000000  2.000000  2.000000  2.000000  2.000000
                       2.000000  1.993407  1.993406  1.545174  0.000000  0.000000
                       0.000000  0.000000  0.000000  0.000000  0.000000  0.000000
                       0.000000  0.000000  0.000000  0.000000  0.000000  0.000000
                       0.000000  0.000000  0.000000  0.000000  0.000000  0.000000
                       2.000000  2.000000  2.000000  2.000000  2.000000  2.000000
                       1.994564  1.981438  1.981436  0.000000  0.000000  0.000000
                       0.000000  0.000000  0.000000  0.000000  0.000000  0.000000
                       0.000000  0.000000  0.000000  0.000000  0.000000  0.000000
                       0.000000  0.000000  0.000000  0.000000  0.000000  0.000000
                       2.000000  2.000000  2.000000  2.000000  2.000000  2.000000
                       1.994564  1.981437  1.981434  0.000000  0.000000  0.000000
                       0.000000  0.000000  0.000000  0.000000  0.000000  0.000000
                       0.000000  0.000000  0.000000  0.000000  0.000000  0.000000
                       0.000000  0.000000  0.000000  0.000000  0.000000  0.000000
                       2.000000  2.000000  2.000000  2.000000  2.000000  2.000000
                       2.000000  1.993407  1.993406  1.545172  0.000000  0.000000
                       0.000000  0.000000  0.000000  0.000000  0.000000  0.000000
                       0.000000  0.000000  0.000000  0.000000  0.000000  0.000000
                       0.000000  0.000000  0.000000  0.000000  0.000000  0.000000
           occopt           3
        pawecutdg      1.20000000E+01 Hartree
          pawovlp     -1.0000000000E+00
        pawprtvol           3
     plowan_bandi1          0
     plowan_bandi2          0
     plowan_bandi3          5
     plowan_bandf1          0
     plowan_bandf2          0
     plowan_bandf3         10
   plowan_compute1          0
   plowan_compute2          0
   plowan_compute3          1
     plowan_natom1          0
     plowan_natom2          0
     plowan_natom3          1
        plowan_nt1          0
        plowan_nt2          0
        plowan_nt3          1
 plowan_realspace1          0
 plowan_realspace2          0
 plowan_realspace3          1
        plowan_it3       0    0    0
     plowan_iatom3       1
       plowan_nbl3       1
     plowan_lcalc3       2
  plowan_projcalc3       5
           prtdos1          0
           prtdos2          0
           prtdos3          3
            rprim      5.0000000000E-01  5.0000000000E-01  0.0000000000E+00
                       0.0000000000E+00  5.0000000000E-01  5.0000000000E-01
                       5.0000000000E-01  0.0000000000E+00  5.0000000000E-01
          spgroup1        225
          spgroup2          1
          spgroup3          1
           strten1     3.4744727553E-03  3.4744727553E-03  3.4744727553E-03
                       0.0000000000E+00  0.0000000000E+00  0.0000000000E+00
           strten2     2.9750086288E-03  2.9748538353E-03  2.9749072413E-03
                       3.3162189191E-07  3.0409494069E-07 -2.9114271171E-07
           strten3     2.9739191666E-03  2.9739713340E-03  2.9739667805E-03
                      -1.2383029281E-07 -1.1273447567E-07  1.0437558519E-07
           symafm1       1    1    1    1    1    1    1    1    1    1
                         1    1    1    1    1    1    1    1    1    1
                         1    1    1    1    1    1    1    1    1    1
                         1    1    1    1    1    1    1    1    1    1
                         1    1    1    1    1    1    1    1
           symafm2       1
           symafm3       1
           symrel1     1  0  0   0  1  0   0  0  1      -1  0  0   0 -1  0   0  0 -1
                       0 -1  1   0 -1  0   1 -1  0       0  1 -1   0  1  0  -1  1  0
                      -1  0  0  -1  0  1  -1  1  0       1  0  0   1  0 -1   1 -1  0
                       0  1 -1   1  0 -1   0  0 -1       0 -1  1  -1  0  1   0  0  1
                      -1  0  0  -1  1  0  -1  0  1       1  0  0   1 -1  0   1  0 -1
                       0 -1  1   1 -1  0   0 -1  0       0  1 -1  -1  1  0   0  1  0
                       1  0  0   0  0  1   0  1  0      -1  0  0   0  0 -1   0 -1  0
                       0  1 -1   0  0 -1   1  0 -1       0 -1  1   0  0  1  -1  0  1
                      -1  0  1  -1  1  0  -1  0  0       1  0 -1   1 -1  0   1  0  0
                       0 -1  0   1 -1  0   0 -1  1       0  1  0  -1  1  0   0  1 -1
                       1  0 -1   0  0 -1   0  1 -1      -1  0  1   0  0  1   0 -1  1
                       0  1  0   0  0  1   1  0  0       0 -1  0   0  0 -1  -1  0  0
                       1  0 -1   0  1 -1   0  0 -1      -1  0  1   0 -1  1   0  0  1
                       0 -1  0   0 -1  1   1 -1  0       0  1  0   0  1 -1  -1  1  0
                      -1  0  1  -1  0  0  -1  1  0       1  0 -1   1  0  0   1 -1  0
                       0  1  0   1  0  0   0  0  1       0 -1  0  -1  0  0   0  0 -1
                       0  0 -1   0  1 -1   1  0 -1       0  0  1   0 -1  1  -1  0  1
                       1 -1  0   0 -1  1   0 -1  0      -1  1  0   0  1 -1   0  1  0
                       0  0  1   1  0  0   0  1  0       0  0 -1  -1  0  0   0 -1  0
                      -1  1  0  -1  0  0  -1  0  1       1 -1  0   1  0  0   1  0 -1
                       0  0  1   0  1  0   1  0  0       0  0 -1   0 -1  0  -1  0  0
                       1 -1  0   0 -1  0   0 -1  1      -1  1  0   0  1  0   0  1 -1
                       0  0 -1   1  0 -1   0  1 -1       0  0  1  -1  0  1   0 -1  1
                      -1  1  0  -1  0  1  -1  0  0       1 -1  0   1  0 -1   1  0  0
           symrel2     1  0  0   0  1  0   0  0  1
           symrel3     1  0  0   0  1  0   0  0  1
            tnons1     0.0000000  0.0000000  0.0000000     0.0000000  0.0000000  0.0000000
                       0.0000000  0.0000000  0.0000000     0.0000000  0.0000000  0.0000000
                       0.0000000  0.0000000  0.0000000     0.0000000  0.0000000  0.0000000
                       0.0000000  0.0000000  0.0000000     0.0000000  0.0000000  0.0000000
                       0.0000000  0.0000000  0.0000000     0.0000000  0.0000000  0.0000000
                       0.0000000  0.0000000  0.0000000     0.0000000  0.0000000  0.0000000
                       0.0000000  0.0000000  0.0000000     0.0000000  0.0000000  0.0000000
                       0.0000000  0.0000000  0.0000000     0.0000000  0.0000000  0.0000000
                       0.0000000  0.0000000  0.0000000     0.0000000  0.0000000  0.0000000
                       0.0000000  0.0000000  0.0000000     0.0000000  0.0000000  0.0000000
                       0.0000000  0.0000000  0.0000000     0.0000000  0.0000000  0.0000000
                       0.0000000  0.0000000  0.0000000     0.0000000  0.0000000  0.0000000
                       0.0000000  0.0000000  0.0000000     0.0000000  0.0000000  0.0000000
                       0.0000000  0.0000000  0.0000000     0.0000000  0.0000000  0.0000000
                       0.0000000  0.0000000  0.0000000     0.0000000  0.0000000  0.0000000
                       0.0000000  0.0000000  0.0000000     0.0000000  0.0000000  0.0000000
                       0.0000000  0.0000000  0.0000000     0.0000000  0.0000000  0.0000000
                       0.0000000  0.0000000  0.0000000     0.0000000  0.0000000  0.0000000
                       0.0000000  0.0000000  0.0000000     0.0000000  0.0000000  0.0000000
                       0.0000000  0.0000000  0.0000000     0.0000000  0.0000000  0.0000000
                       0.0000000  0.0000000  0.0000000     0.0000000  0.0000000  0.0000000
                       0.0000000  0.0000000  0.0000000     0.0000000  0.0000000  0.0000000
                       0.0000000  0.0000000  0.0000000     0.0000000  0.0000000  0.0000000
                       0.0000000  0.0000000  0.0000000     0.0000000  0.0000000  0.0000000
            tnons2     0.0000000  0.0000000  0.0000000
            tnons3     0.0000000  0.0000000  0.0000000
           tolwfr      1.00000000E-10
           tsmear      3.67490000E-03 Hartree
            typat      1
           useylm           1
              wtk1       0.12500    0.50000    0.37500
              wtk2       0.12500    0.12500    0.12500    0.12500    0.12500    0.12500
                         0.12500    0.12500
              wtk3       0.12500    0.12500    0.12500    0.12500    0.12500    0.12500
                         0.12500    0.12500
            znucl       29.00000
 
================================================================================
  

================================================================================

 Suggested references for the acknowledgment of ABINIT usage.

 The users of ABINIT have little formal obligations with respect to the ABINIT group
 (those specified in the GNU General Public License, http://www.gnu.org/copyleft/gpl.txt).
 However, it is common practice in the scientific literature,
 to acknowledge the efforts of people that have made the research possible.
 In this spirit, please find below suggested citations of work written by ABINIT developers,
 corresponding to implementations inside of ABINIT that you have used in the present run.
 Note also that it will be of great value to readers of publications presenting these results,
 to read papers enabling them to understand the theoretical formalism and details
 of the ABINIT implementation.
 For information on why they are suggested, see also https://docs.abinit.org/theory/acknowledgments.
-
- [1] Implementation of the Projector Augmented-Wave Method in the ABINIT code.
- M. Torrent, F. Jollet, F. Bottin, G. Zerah, and X. Gonze Comput. Mat. Science 42, 337, (2008).
- Comment : PAW calculations. Strong suggestion to cite this paper.
- DOI and bibtex : see https://docs.abinit.org/theory/bibliography/#torrent2008
-
- [2] Recent developments in the ABINIT software package.
- Computer Phys. Comm. 205, 106 (2016).
- X.Gonze, F.Jollet, F.Abreu Araujo, D.Adams, B.Amadon, T.Applencourt,
- C.Audouze, J.-M.Beuken, J.Bieder, A.Bokhanchuk, E.Bousquet, F.Bruneval
- D.Caliste, M.Cote, F.Dahm, F.Da Pieve, M.Delaveau, M.Di Gennaro,
- B.Dorado, C.Espejo, G.Geneste, L.Genovese, A.Gerossier, M.Giantomassi,
- Y.Gillet, D.R.Hamann, L.He, G.Jomard, J.Laflamme Janssen, S.Le Roux,
- A.Levitt, A.Lherbier, F.Liu, I.Lukacevic, A.Martin, C.Martins,
- M.J.T.Oliveira, S.Ponce, Y.Pouillon, T.Rangel, G.-M.Rignanese,
- A.H.Romero, B.Rousseau, O.Rubel, A.A.Shukri, M.Stankovski, M.Torrent,
- M.J.Van Setten, B.Van Troeye, M.J.Verstraete, D.Waroquier, J.Wiktor,
- B.Xu, A.Zhou, J.W.Zwanziger.
- Comment : the fourth generic paper describing the ABINIT project.
- Note that a version of this paper, that is not formatted for Computer Phys. Comm. 
- is available at https://www.abinit.org/about/ABINIT16.pdf .
- The licence allows the authors to put it on the Web.
- DOI and bibtex : see https://docs.abinit.org/theory/bibliography/#gonze2016
-
- [3] ABINIT : First-principles approach of materials and nanosystem properties.
- Computer Phys. Comm. 180, 2582-2615 (2009).
- X. Gonze, B. Amadon, P.-M. Anglade, J.-M. Beuken, F. Bottin, P. Boulanger, F. Bruneval,
- D. Caliste, R. Caracas, M. Cote, T. Deutsch, L. Genovese, Ph. Ghosez, M. Giantomassi
- S. Goedecker, D.R. Hamann, P. Hermet, F. Jollet, G. Jomard, S. Leroux, M. Mancini, S. Mazevet,
- M.J.T. Oliveira, G. Onida, Y. Pouillon, T. Rangel, G.-M. Rignanese, D. Sangalli, R. Shaltaf,
- M. Torrent, M.J. Verstraete, G. Zerah, J.W. Zwanziger
- Comment : the third generic paper describing the ABINIT project.
- Note that a version of this paper, that is not formatted for Computer Phys. Comm. 
- is available at https://www.abinit.org/about/ABINIT_CPC_v10.pdf .
- The licence allows the authors to put it on the Web.
- DOI and bibtex : see https://docs.abinit.org/theory/bibliography/#gonze2009
-
- [4] A brief introduction to the ABINIT software package.
- Z. Kristallogr. 220, 558-562 (2005).
- X. Gonze, G.-M. Rignanese, M. Verstraete, J.-M. Beuken, Y. Pouillon, R. Caracas, F. Jollet,
- M. Torrent, G. Zerah, M. Mikami, Ph. Ghosez, M. Veithen, J.-Y. Raty, V. Olevano, F. Bruneval,
- L. Reining, R. Godby, G. Onida, D.R. Hamann, and D.C. Allan.
- Comment : the second generic paper describing the ABINIT project. Note that this paper
- should be cited especially if you are using the GW part of ABINIT, as several authors
- of this part are not in the list of authors of the first or third paper.
- The .pdf of the latter paper is available at https://www.abinit.org/about/zfk_0505-06_558-562.pdf.
- Note that it should not redistributed (Copyright by Oldenburg Wissenshaftverlag,
- the licence allows the authors to put it on the Web).
- DOI and bibtex : see https://docs.abinit.org/theory/bibliography/#gonze2005
-
- And optionally:
-
- [5] First-principles computation of material properties : the ABINIT software project. 
- X. Gonze, J.-M. Beuken, R. Caracas, F. Detraux, M. Fuchs, G.-M. Rignanese, L. Sindic,
- M. Verstraete, G. Zerah, F. Jollet, M. Torrent, A. Roy, M. Mikami, Ph. Ghosez, J.-Y. Raty, D.C. Allan.
- Computational Materials Science 25, 478-492 (2002). http://dx.doi.org/10.1016/S0927-0256(02)00325-7
- Comment : the original paper describing the ABINIT project.
- DOI and bibtex : see https://docs.abinit.org/theory/bibliography/#gonze2002
  Asked to delete not existent file: t76x_STATUS
 Proc.   0 individual time (sec): cpu=          3.4  wall=          3.8
 
 Calculation completed.
.Delivered  11 WARNINGs and  15 COMMENTs to log file.

--- !FinalSummary
program: abinit
version: 8.10.2
start_datetime: Sun Oct 21 20:29:55 2018
end_datetime: Sun Oct 21 20:29:58 2018
overall_cpu_time:           3.4
overall_wall_time:           3.8
exit_requested_by_user: no 
timelimit: 0
pseudos: 
    Cu  : 163000c7f388c60b8c835ab1c53f3e85
usepaw: 1
mpi_procs: 1
omp_threads: 1
num_warnings: 11
num_comments: 15
...
