
.Version 8.10.2 of ABINIT 
.(MPI version, prepared for a x86_64_linux_intel18.0 computer) 

.Copyright (C) 1998-2018 ABINIT group . 
 ABINIT comes with ABSOLUTELY NO WARRANTY.
 It is free software, and you are welcome to redistribute it
 under certain conditions (GNU General Public License,
 see ~abinit/COPYING or http://www.gnu.org/copyleft/gpl.txt).

 ABINIT is a project of the Universite Catholique de Louvain,
 Corning Inc. and other collaborators, see ~abinit/doc/developers/contributors.txt .
 Please read https://docs.abinit.org/theory/acknowledgments for suggested
 acknowledgments of the ABINIT effort.
 For more information, see https://www.abinit.org .

.Starting date : Sun 21 Oct 2018.
- ( at 20h29 )
  
- input  file    -> t76.in
- output file    -> t76.out
- root for input  files -> t76i
- root for output files -> t76o
 
 
 DATASET    1 : space group Fm -3 m (#225); Bravais cF (face-center cubic)
================================================================================
 Values of the parameters that define the memory need for DATASET  1.
     intxc =       0    ionmov =       0      iscf =      17    lmnmax =      18
     lnmax =       6     mgfft =      15  mpssoang =       3    mqgrid =    3001
     natom =       1  nloc_mem =       2    nspden =       1   nspinor =       1
    nsppol =       1      nsym =      48    n1xccc =       1    ntypat =       1
    occopt =       3   xclevel =       1
-    mband =          30        mffmem =           1         mkmem =           3
       mpw =          92          nfft =        3375          nkpt =           3
 PAW method is used; the additional fine FFT grid is defined by:
   mgfftf=        16    nfftf =      4096
================================================================================
P This job should need less than                       4.314 Mbytes of memory.
  Rough estimation (10% accuracy) of disk space for files :
_ WF disk file :      0.128 Mbytes ; DEN or POT disk file :      0.033 Mbytes.
================================================================================
 
 
 DATASET    2 : space group P1 (#  1); Bravais aP (primitive triclinic)
================================================================================
 Values of the parameters that define the memory need for DATASET  2.
     intxc =       0    ionmov =       0      iscf =      17    lmnmax =      18
     lnmax =       6     mgfft =      15  mpssoang =       3    mqgrid =    3001
     natom =       1  nloc_mem =       2    nspden =       1   nspinor =       1
    nsppol =       1      nsym =       1    n1xccc =       1    ntypat =       1
    occopt =       3   xclevel =       1
-    mband =          30        mffmem =           1         mkmem =           8
       mpw =          92          nfft =        3375          nkpt =           8
 PAW method is used; the additional fine FFT grid is defined by:
   mgfftf=        16    nfftf =      4096
================================================================================
P This job should need less than                       4.537 Mbytes of memory.
  Rough estimation (10% accuracy) of disk space for files :
_ WF disk file :      0.339 Mbytes ; DEN or POT disk file :      0.033 Mbytes.
================================================================================
 
 
 DATASET    3 : space group P1 (#  1); Bravais aP (primitive triclinic)
================================================================================
 Values of the parameters that define the memory need for DATASET  3.
     intxc =       0    ionmov =       0      iscf =      17    lmnmax =      18
     lnmax =       6     mgfft =      15  mpssoang =       3    mqgrid =    3001
     natom =       1  nloc_mem =       2    nspden =       1   nspinor =       1
    nsppol =       1      nsym =       1    n1xccc =       1    ntypat =       1
    occopt =       3   xclevel =       1
-    mband =          30        mffmem =           1         mkmem =           8
       mpw =          92          nfft =        3375          nkpt =           8
 PAW method is used; the additional fine FFT grid is defined by:
   mgfftf=        16    nfftf =      4096
================================================================================
P This job should need less than                       4.537 Mbytes of memory.
  Rough estimation (10% accuracy) of disk space for files :
_ WF disk file :      0.339 Mbytes ; DEN or POT disk file :      0.033 Mbytes.
================================================================================
 
--------------------------------------------------------------------------------
------------- Echo of variables that govern the present computation ------------
--------------------------------------------------------------------------------
-
- outvars: echo of selected default values                                      
-   iomode0 =  0 , fftalg0 =312 , wfoptalg0 = 10
-
- outvars: echo of global parameters not present in the input file              
-  max_nthreads =    0
-
 -outvars: echo values of preprocessed input variables --------
            acell      6.8220000000E+00  6.8220000000E+00  6.8220000000E+00 Bohr
              amu      6.35460000E+01
             ecut      8.00000000E+00 Hartree
-          fftalg         312
           getden1          0
           getden2         -1
           getden3          2
           getwfk1          0
           getwfk2          0
           getwfk3          2
           iatsph3       1
           istwfk1       1    1    1
           istwfk2       1    1    1    1    1    1    1    1
           istwfk3       1    1    1    1    1    1    1    1
              ixc           7
           jdtset        1    2    3
              kpt1     0.00000000E+00  0.00000000E+00  0.00000000E+00
                       5.00000000E-01  0.00000000E+00  0.00000000E+00
                       5.00000000E-01  5.00000000E-01  0.00000000E+00
              kpt2     0.00000000E+00  0.00000000E+00  0.00000000E+00
                       5.00000000E-01  0.00000000E+00  0.00000000E+00
                       0.00000000E+00  5.00000000E-01  0.00000000E+00
                       5.00000000E-01  5.00000000E-01  0.00000000E+00
                       0.00000000E+00  0.00000000E+00  5.00000000E-01
                       5.00000000E-01  0.00000000E+00  5.00000000E-01
                       0.00000000E+00  5.00000000E-01  5.00000000E-01
                       5.00000000E-01  5.00000000E-01  5.00000000E-01
              kpt3     0.00000000E+00  0.00000000E+00  0.00000000E+00
                       5.00000000E-01  0.00000000E+00  0.00000000E+00
                       0.00000000E+00  5.00000000E-01  0.00000000E+00
                       5.00000000E-01  5.00000000E-01  0.00000000E+00
                       0.00000000E+00  0.00000000E+00  5.00000000E-01
                       5.00000000E-01  0.00000000E+00  5.00000000E-01
                       0.00000000E+00  5.00000000E-01  5.00000000E-01
                       5.00000000E-01  5.00000000E-01  5.00000000E-01
         kptrlatt        2    0    0      0    2    0      0    0    2
          kptrlen      9.64776492E+00
          kssform1          1
          kssform2          1
          kssform3          3
P           mkmem1          3
P           mkmem2          8
P           mkmem3          8
            natom           1
           natsph3       1
            nband1         30
            nband2         30
            nband3         30
         nbandkss1          0
         nbandkss2          0
         nbandkss3          2
           ndtset           3
            ngfft          15      15      15
          ngfftdg          16      16      16
             nkpt1          3
             nkpt2          8
             nkpt3          8
            nline1          5
            nline2          3
            nline3          5
           nnsclo1          2
           nnsclo2          3
           nnsclo3          2
            nstep          20
             nsym1         48
             nsym2          1
             nsym3          1
           ntypat           1
              occ1     2.000000  2.000000  2.000000  2.000000  2.000000  2.000000
                       2.000000  2.000000  2.000000  1.000000  0.000000  0.000000
                       0.000000  0.000000  0.000000  0.000000  0.000000  0.000000
                       0.000000  0.000000  0.000000  0.000000  0.000000  0.000000
                       0.000000  0.000000  0.000000  0.000000  0.000000  0.000000
                       2.000000  2.000000  2.000000  2.000000  2.000000  2.000000
                       2.000000  2.000000  2.000000  1.000000  0.000000  0.000000
                       0.000000  0.000000  0.000000  0.000000  0.000000  0.000000
                       0.000000  0.000000  0.000000  0.000000  0.000000  0.000000
                       0.000000  0.000000  0.000000  0.000000  0.000000  0.000000
                       2.000000  2.000000  2.000000  2.000000  2.000000  2.000000
                       2.000000  2.000000  2.000000  1.000000  0.000000  0.000000
                       0.000000  0.000000  0.000000  0.000000  0.000000  0.000000
                       0.000000  0.000000  0.000000  0.000000  0.000000  0.000000
                       0.000000  0.000000  0.000000  0.000000  0.000000  0.000000
              occ2     2.000000  2.000000  2.000000  2.000000  2.000000  2.000000
                       2.000000  2.000000  2.000000  1.000000  0.000000  0.000000
                       0.000000  0.000000  0.000000  0.000000  0.000000  0.000000
                       0.000000  0.000000  0.000000  0.000000  0.000000  0.000000
                       0.000000  0.000000  0.000000  0.000000  0.000000  0.000000
                       2.000000  2.000000  2.000000  2.000000  2.000000  2.000000
                       2.000000  2.000000  2.000000  1.000000  0.000000  0.000000
                       0.000000  0.000000  0.000000  0.000000  0.000000  0.000000
                       0.000000  0.000000  0.000000  0.000000  0.000000  0.000000
                       0.000000  0.000000  0.000000  0.000000  0.000000  0.000000
                       2.000000  2.000000  2.000000  2.000000  2.000000  2.000000
                       2.000000  2.000000  2.000000  1.000000  0.000000  0.000000
                       0.000000  0.000000  0.000000  0.000000  0.000000  0.000000
                       0.000000  0.000000  0.000000  0.000000  0.000000  0.000000
                       0.000000  0.000000  0.000000  0.000000  0.000000  0.000000
                       2.000000  2.000000  2.000000  2.000000  2.000000  2.000000
                       2.000000  2.000000  2.000000  1.000000  0.000000  0.000000
                       0.000000  0.000000  0.000000  0.000000  0.000000  0.000000
                       0.000000  0.000000  0.000000  0.000000  0.000000  0.000000
                       0.000000  0.000000  0.000000  0.000000  0.000000  0.000000
                       2.000000  2.000000  2.000000  2.000000  2.000000  2.000000
                       2.000000  2.000000  2.000000  1.000000  0.000000  0.000000
                       0.000000  0.000000  0.000000  0.000000  0.000000  0.000000
                       0.000000  0.000000  0.000000  0.000000  0.000000  0.000000
                       0.000000  0.000000  0.000000  0.000000  0.000000  0.000000
                       2.000000  2.000000  2.000000  2.000000  2.000000  2.000000
                       2.000000  2.000000  2.000000  1.000000  0.000000  0.000000
                       0.000000  0.000000  0.000000  0.000000  0.000000  0.000000
                       0.000000  0.000000  0.000000  0.000000  0.000000  0.000000
                       0.000000  0.000000  0.000000  0.000000  0.000000  0.000000
                       2.000000  2.000000  2.000000  2.000000  2.000000  2.000000
                       2.000000  2.000000  2.000000  1.000000  0.000000  0.000000
                       0.000000  0.000000  0.000000  0.000000  0.000000  0.000000
                       0.000000  0.000000  0.000000  0.000000  0.000000  0.000000
                       0.000000  0.000000  0.000000  0.000000  0.000000  0.000000
                       2.000000  2.000000  2.000000  2.000000  2.000000  2.000000
                       2.000000  2.000000  2.000000  1.000000  0.000000  0.000000
                       0.000000  0.000000  0.000000  0.000000  0.000000  0.000000
                       0.000000  0.000000  0.000000  0.000000  0.000000  0.000000
                       0.000000  0.000000  0.000000  0.000000  0.000000  0.000000
              occ3     2.000000  2.000000  2.000000  2.000000  2.000000  2.000000
                       2.000000  2.000000  2.000000  1.000000  0.000000  0.000000
                       0.000000  0.000000  0.000000  0.000000  0.000000  0.000000
                       0.000000  0.000000  0.000000  0.000000  0.000000  0.000000
                       0.000000  0.000000  0.000000  0.000000  0.000000  0.000000
                       2.000000  2.000000  2.000000  2.000000  2.000000  2.000000
                       2.000000  2.000000  2.000000  1.000000  0.000000  0.000000
                       0.000000  0.000000  0.000000  0.000000  0.000000  0.000000
                       0.000000  0.000000  0.000000  0.000000  0.000000  0.000000
                       0.000000  0.000000  0.000000  0.000000  0.000000  0.000000
                       2.000000  2.000000  2.000000  2.000000  2.000000  2.000000
                       2.000000  2.000000  2.000000  1.000000  0.000000  0.000000
                       0.000000  0.000000  0.000000  0.000000  0.000000  0.000000
                       0.000000  0.000000  0.000000  0.000000  0.000000  0.000000
                       0.000000  0.000000  0.000000  0.000000  0.000000  0.000000
                       2.000000  2.000000  2.000000  2.000000  2.000000  2.000000
                       2.000000  2.000000  2.000000  1.000000  0.000000  0.000000
                       0.000000  0.000000  0.000000  0.000000  0.000000  0.000000
                       0.000000  0.000000  0.000000  0.000000  0.000000  0.000000
                       0.000000  0.000000  0.000000  0.000000  0.000000  0.000000
                       2.000000  2.000000  2.000000  2.000000  2.000000  2.000000
                       2.000000  2.000000  2.000000  1.000000  0.000000  0.000000
                       0.000000  0.000000  0.000000  0.000000  0.000000  0.000000
                       0.000000  0.000000  0.000000  0.000000  0.000000  0.000000
                       0.000000  0.000000  0.000000  0.000000  0.000000  0.000000
                       2.000000  2.000000  2.000000  2.000000  2.000000  2.000000
                       2.000000  2.000000  2.000000  1.000000  0.000000  0.000000
                       0.000000  0.000000  0.000000  0.000000  0.000000  0.000000
                       0.000000  0.000000  0.000000  0.000000  0.000000  0.000000
                       0.000000  0.000000  0.000000  0.000000  0.000000  0.000000
                       2.000000  2.000000  2.000000  2.000000  2.000000  2.000000
                       2.000000  2.000000  2.000000  1.000000  0.000000  0.000000
                       0.000000  0.000000  0.000000  0.000000  0.000000  0.000000
                       0.000000  0.000000  0.000000  0.000000  0.000000  0.000000
                       0.000000  0.000000  0.000000  0.000000  0.000000  0.000000
                       2.000000  2.000000  2.000000  2.000000  2.000000  2.000000
                       2.000000  2.000000  2.000000  1.000000  0.000000  0.000000
                       0.000000  0.000000  0.000000  0.000000  0.000000  0.000000
                       0.000000  0.000000  0.000000  0.000000  0.000000  0.000000
                       0.000000  0.000000  0.000000  0.000000  0.000000  0.000000
           occopt           3
        pawecutdg      1.20000000E+01 Hartree
          pawovlp     -1.0000000000E+00
        pawprtvol           3
     plowan_bandi1          0
     plowan_bandi2          0
     plowan_bandi3          5
     plowan_bandf1          0
     plowan_bandf2          0
     plowan_bandf3         10
   plowan_compute1          0
   plowan_compute2          0
   plowan_compute3          1
     plowan_natom1          0
     plowan_natom2          0
     plowan_natom3          1
        plowan_nt1          0
        plowan_nt2          0
        plowan_nt3          1
 plowan_realspace1          0
 plowan_realspace2          0
 plowan_realspace3          1
        plowan_it3       0    0    0
     plowan_iatom3       1
       plowan_nbl3       1
     plowan_lcalc3       2
  plowan_projcalc3       5
           prtdos1          0
           prtdos2          0
           prtdos3          3
            rprim      5.0000000000E-01  5.0000000000E-01  0.0000000000E+00
                       0.0000000000E+00  5.0000000000E-01  5.0000000000E-01
                       5.0000000000E-01  0.0000000000E+00  5.0000000000E-01
          spgroup1        225
          spgroup2          1
          spgroup3          1
           symafm1       1    1    1    1    1    1    1    1    1    1
                         1    1    1    1    1    1    1    1    1    1
                         1    1    1    1    1    1    1    1    1    1
                         1    1    1    1    1    1    1    1    1    1
                         1    1    1    1    1    1    1    1
           symafm2       1
           symafm3       1
           symrel1     1  0  0   0  1  0   0  0  1      -1  0  0   0 -1  0   0  0 -1
                       0 -1  1   0 -1  0   1 -1  0       0  1 -1   0  1  0  -1  1  0
                      -1  0  0  -1  0  1  -1  1  0       1  0  0   1  0 -1   1 -1  0
                       0  1 -1   1  0 -1   0  0 -1       0 -1  1  -1  0  1   0  0  1
                      -1  0  0  -1  1  0  -1  0  1       1  0  0   1 -1  0   1  0 -1
                       0 -1  1   1 -1  0   0 -1  0       0  1 -1  -1  1  0   0  1  0
                       1  0  0   0  0  1   0  1  0      -1  0  0   0  0 -1   0 -1  0
                       0  1 -1   0  0 -1   1  0 -1       0 -1  1   0  0  1  -1  0  1
                      -1  0  1  -1  1  0  -1  0  0       1  0 -1   1 -1  0   1  0  0
                       0 -1  0   1 -1  0   0 -1  1       0  1  0  -1  1  0   0  1 -1
                       1  0 -1   0  0 -1   0  1 -1      -1  0  1   0  0  1   0 -1  1
                       0  1  0   0  0  1   1  0  0       0 -1  0   0  0 -1  -1  0  0
                       1  0 -1   0  1 -1   0  0 -1      -1  0  1   0 -1  1   0  0  1
                       0 -1  0   0 -1  1   1 -1  0       0  1  0   0  1 -1  -1  1  0
                      -1  0  1  -1  0  0  -1  1  0       1  0 -1   1  0  0   1 -1  0
                       0  1  0   1  0  0   0  0  1       0 -1  0  -1  0  0   0  0 -1
                       0  0 -1   0  1 -1   1  0 -1       0  0  1   0 -1  1  -1  0  1
                       1 -1  0   0 -1  1   0 -1  0      -1  1  0   0  1 -1   0  1  0
                       0  0  1   1  0  0   0  1  0       0  0 -1  -1  0  0   0 -1  0
                      -1  1  0  -1  0  0  -1  0  1       1 -1  0   1  0  0   1  0 -1
                       0  0  1   0  1  0   1  0  0       0  0 -1   0 -1  0  -1  0  0
                       1 -1  0   0 -1  0   0 -1  1      -1  1  0   0  1  0   0  1 -1
                       0  0 -1   1  0 -1   0  1 -1       0  0  1  -1  0  1   0 -1  1
                      -1  1  0  -1  0  1  -1  0  0       1 -1  0   1  0 -1   1  0  0
           symrel2     1  0  0   0  1  0   0  0  1
           symrel3     1  0  0   0  1  0   0  0  1
            tnons1     0.0000000  0.0000000  0.0000000     0.0000000  0.0000000  0.0000000
                       0.0000000  0.0000000  0.0000000     0.0000000  0.0000000  0.0000000
                       0.0000000  0.0000000  0.0000000     0.0000000  0.0000000  0.0000000
                       0.0000000  0.0000000  0.0000000     0.0000000  0.0000000  0.0000000
                       0.0000000  0.0000000  0.0000000     0.0000000  0.0000000  0.0000000
                       0.0000000  0.0000000  0.0000000     0.0000000  0.0000000  0.0000000
                       0.0000000  0.0000000  0.0000000     0.0000000  0.0000000  0.0000000
                       0.0000000  0.0000000  0.0000000     0.0000000  0.0000000  0.0000000
                       0.0000000  0.0000000  0.0000000     0.0000000  0.0000000  0.0000000
                       0.0000000  0.0000000  0.0000000     0.0000000  0.0000000  0.0000000
                       0.0000000  0.0000000  0.0000000     0.0000000  0.0000000  0.0000000
                       0.0000000  0.0000000  0.0000000     0.0000000  0.0000000  0.0000000
                       0.0000000  0.0000000  0.0000000     0.0000000  0.0000000  0.0000000
                       0.0000000  0.0000000  0.0000000     0.0000000  0.0000000  0.0000000
                       0.0000000  0.0000000  0.0000000     0.0000000  0.0000000  0.0000000
                       0.0000000  0.0000000  0.0000000     0.0000000  0.0000000  0.0000000
                       0.0000000  0.0000000  0.0000000     0.0000000  0.0000000  0.0000000
                       0.0000000  0.0000000  0.0000000     0.0000000  0.0000000  0.0000000
                       0.0000000  0.0000000  0.0000000     0.0000000  0.0000000  0.0000000
                       0.0000000  0.0000000  0.0000000     0.0000000  0.0000000  0.0000000
                       0.0000000  0.0000000  0.0000000     0.0000000  0.0000000  0.0000000
                       0.0000000  0.0000000  0.0000000     0.0000000  0.0000000  0.0000000
                       0.0000000  0.0000000  0.0000000     0.0000000  0.0000000  0.0000000
                       0.0000000  0.0000000  0.0000000     0.0000000  0.0000000  0.0000000
            tnons2     0.0000000  0.0000000  0.0000000
            tnons3     0.0000000  0.0000000  0.0000000
           tolwfr      1.00000000E-10
           tsmear      3.67490000E-03 Hartree
            typat      1
           useylm           1
              wtk1       0.12500    0.50000    0.37500
              wtk2       0.12500    0.12500    0.12500    0.12500    0.12500    0.12500
                         0.12500    0.12500
              wtk3       0.12500    0.12500    0.12500    0.12500    0.12500    0.12500
                         0.12500    0.12500
            znucl       29.00000
 
================================================================================
 
 chkinp: Checking input parameters for consistency, jdtset=   1.
 
 chkinp: Checking input parameters for consistency, jdtset=   2.
 
 chkinp: Checking input parameters for consistency, jdtset=   3.
 
================================================================================
== DATASET  1 ==================================================================
-   nproc =    1
 
 Exchange-correlation functional for the present dataset will be:
  LDA: Perdew-Wang 92 LSD fit to Ceperley-Alder data - ixc=7
 Citation for XC functional:
  J.P.Perdew and Y.Wang, PRB 45, 13244 (1992)
 
 Real(R)+Recip(G) space primitive vectors, cartesian coordinates (Bohr,Bohr^-1):
 R(1)=  3.4110000  3.4110000  0.0000000  G(1)=  0.1465846  0.1465846 -0.1465846
 R(2)=  0.0000000  3.4110000  3.4110000  G(2)= -0.1465846  0.1465846  0.1465846
 R(3)=  3.4110000  0.0000000  3.4110000  G(3)=  0.1465846 -0.1465846  0.1465846
 Unit cell volume ucvol=  7.9373431E+01 bohr^3
 Angles (23,13,12)=  6.00000000E+01  6.00000000E+01  6.00000000E+01 degrees
 
 Coarse grid specifications (used for wave-functions):
 
 getcut: wavevector=  0.0000  0.0000  0.0000  ngfft=  15  15  15
         ecut(hartree)=      8.000   => boxcut(ratio)=   2.29100
 
 getcut : COMMENT -
  Note that boxcut > 2.2 ; recall that boxcut=Gcut(box)/Gcut(sphere) = 2
  is sufficient for exact treatment of convolution.
  Such a large boxcut is a waste : you could raise ecut
  e.g. ecut=   10.497394 Hartrees makes boxcut=2
 
 
 Fine grid specifications (used for densities):
 
 getcut: wavevector=  0.0000  0.0000  0.0000  ngfft=  16  16  16
         ecut(hartree)=     12.000   => boxcut(ratio)=   2.12700
 
--- Pseudopotential description ------------------------------------------------
- pspini: atom type   1  psp file is ../../../Psps_for_tests/Cu_LDA_abinit
- pspatm: opening atomic psp file    ../../../Psps_for_tests/Cu_LDA_abinit
- Paw atomic data for element Cu - Generated by AtomPAW (N. Holzwarth) + AtomPAW2Abinit v3.1.1
- 29.00000  19.00000  20070404                znucl, zion, pspdat
    7    7    2    0      1445   0.00000      pspcod,pspxc,lmax,lloc,mmax,r2well
 Pseudopotential format is: paw3
 basis_size (lnmax)=  6 (lmn_size= 18), orbitals=   0   0   1   1   2   2
 Spheres core radius: rc_sph= 2.20631958
 3 radial meshes are used:
  - mesh 1: r(i)=AA*[exp(BB*(i-1))-1], size=1445 , AA= 0.22070E-03 BB= 0.64004E-02
  - mesh 2: r(i)=AA*[exp(BB*(i-1))-1], size=1440 , AA= 0.22070E-03 BB= 0.64004E-02
  - mesh 3: r(i)=AA*[exp(BB*(i-1))-1], size=1676 , AA= 0.22070E-03 BB= 0.64004E-02
 Shapefunction is SIN type: shapef(r)=[sin(pi*r/rshp)/(pi*r/rshp)]**2
 Radius for shape functions = sphere core radius
 Radial grid used for partial waves is grid 1
 Radial grid used for projectors is grid  2
 Radial grid used for (t)core density is grid 1
 Radial grid used for Vloc is grid 3
 Compensation charge density is taken into account in XC energy/potential
 pspatm: atomic psp has been read  and splines computed
 
   1.01847678E+03                                ecore*ucvol(ha*bohr**3)
--------------------------------------------------------------------------------
 
_setup2: Arith. and geom. avg. npw (full set) are      87.625      87.128
 
================================================================================
 
     iter   Etot(hartree)      deltaE(h)  residm     nres2
 ETOT  1  -196.93284332054    -1.969E+02 7.103E+01 3.690E+01
 ETOT  2  -198.20232536788    -1.269E+00 2.244E-02 1.418E+01
 ETOT  3  -197.76542602788     4.369E-01 1.592E-04 1.419E+01
 ETOT  4  -197.45688383248     3.085E-01 7.772E-07 3.794E+00
 ETOT  5  -197.35202631305     1.049E-01 2.418E-07 1.767E-01
 ETOT  6  -197.35725562069    -5.229E-03 2.271E-07 6.428E-01
 ETOT  7  -197.35425683037     2.999E-03 3.135E-09 4.916E-01
 ETOT  8  -197.35703933648    -2.783E-03 7.672E-10 6.092E-01
 ETOT  9  -197.35229110805     4.748E-03 1.418E-07 1.490E-01
 ETOT 10  -197.35007176003     2.219E-03 5.862E-09 5.841E-02
 ETOT 11  -197.35063725443    -5.655E-04 5.209E-10 8.161E-02
 ETOT 12  -197.34970233856     9.349E-04 3.565E-08 1.104E-01
 ETOT 13  -197.34942444287     2.779E-04 1.840E-08 3.115E-02
 ETOT 14  -197.34885409485     5.703E-04 2.519E-09 4.469E-03
 ETOT 15  -197.34880673773     4.736E-05 9.570E-11 1.739E-03
 
 At SCF step   15   max residual=  9.57E-11 < tolwfr=  1.00E-10 =>converged.
 
 Cartesian components of stress tensor (hartree/bohr^3)
  sigma(1 1)=  3.47447276E-03  sigma(3 2)=  0.00000000E+00
  sigma(2 2)=  3.47447276E-03  sigma(3 1)=  0.00000000E+00
  sigma(3 3)=  3.47447276E-03  sigma(2 1)=  0.00000000E+00
 
 Integrated electronic density in atomic spheres:
 ------------------------------------------------
 Atom  Sphere_radius  Integrated_density
    1        2.20632         17.94280296
 
 PAW TEST:
 ==== Compensation charge inside spheres ============
 The following values must be close to each other ...
 Compensation charge over spherical meshes =     14.386295179128304
 Compensation charge over fine fft grid    =     14.407175158858832
 
 ==== Results concerning PAW augmentation regions ====
 
 Total pseudopotential strength Dij (hartree):
  -3.58825   0.22961   0.00000   0.00000   0.00000   0.00000   0.00000   0.00000   0.00000   0.00000   0.00000   0.00000 ...
   0.22961   0.21677   0.00000   0.00000   0.00000   0.00000   0.00000   0.00000   0.00000   0.00000   0.00000   0.00000 ...
   0.00000   0.00000  -2.31280   0.00000   0.00000   0.04622   0.00000   0.00000   0.00000   0.00000   0.00000   0.00000 ...
   0.00000   0.00000   0.00000  -2.31280   0.00000   0.00000   0.04622   0.00000   0.00000   0.00000   0.00000   0.00000 ...
   0.00000   0.00000   0.00000   0.00000  -2.31280   0.00000   0.00000   0.04622   0.00000   0.00000   0.00000   0.00000 ...
   0.00000   0.00000   0.04622   0.00000   0.00000   0.03160   0.00000   0.00000   0.00000   0.00000   0.00000   0.00000 ...
   0.00000   0.00000   0.00000   0.04622   0.00000   0.00000   0.03160   0.00000   0.00000   0.00000   0.00000   0.00000 ...
   0.00000   0.00000   0.00000   0.00000   0.04622   0.00000   0.00000   0.03160   0.00000   0.00000   0.00000   0.00000 ...
   0.00000   0.00000   0.00000   0.00000   0.00000   0.00000   0.00000   0.00000  -0.14929   0.00000   0.00000   0.00000 ...
   0.00000   0.00000   0.00000   0.00000   0.00000   0.00000   0.00000   0.00000   0.00000  -0.14929   0.00000   0.00000 ...
   0.00000   0.00000   0.00000   0.00000   0.00000   0.00000   0.00000   0.00000   0.00000   0.00000  -0.14821   0.00000 ...
   0.00000   0.00000   0.00000   0.00000   0.00000   0.00000   0.00000   0.00000   0.00000   0.00000   0.00000  -0.14929 ...
   ...  only 12  components have been written...
 
 
 Augmentation waves occupancies Rhoij:
   1.99951  -0.00524   0.00000   0.00000   0.00000   0.00000   0.00000   0.00000   0.00000   0.00000   0.00000   0.00000 ...
  -0.00524   0.91693   0.00000   0.00000   0.00000   0.00000   0.00000   0.00000   0.00000   0.00000   0.00000   0.00000 ...
   0.00000   0.00000   1.99850   0.00000   0.00000  -0.02762   0.00000   0.00000   0.00000   0.00000   0.00000   0.00000 ...
   0.00000   0.00000   0.00000   1.99850   0.00000   0.00000  -0.02762   0.00000   0.00000   0.00000   0.00000   0.00000 ...
   0.00000   0.00000   0.00000   0.00000   1.99850   0.00000   0.00000  -0.02762   0.00000   0.00000   0.00000   0.00000 ...
   0.00000   0.00000  -0.02762   0.00000   0.00000   1.44503   0.00000   0.00000   0.00000   0.00000   0.00000   0.00000 ...
   0.00000   0.00000   0.00000  -0.02762   0.00000   0.00000   1.44503   0.00000   0.00000   0.00000   0.00000   0.00000 ...
   0.00000   0.00000   0.00000   0.00000  -0.02762   0.00000   0.00000   1.44503   0.00000   0.00000   0.00000   0.00000 ...
   0.00000   0.00000   0.00000   0.00000   0.00000   0.00000   0.00000   0.00000   1.96293   0.00000   0.00000   0.00000 ...
   0.00000   0.00000   0.00000   0.00000   0.00000   0.00000   0.00000   0.00000   0.00000   1.96293   0.00000   0.00000 ...
   0.00000   0.00000   0.00000   0.00000   0.00000   0.00000   0.00000   0.00000   0.00000   0.00000   2.00097   0.00000 ...
   0.00000   0.00000   0.00000   0.00000   0.00000   0.00000   0.00000   0.00000   0.00000   0.00000   0.00000   1.96293 ...
   ...  only 12  components have been written...
 
 
================================================================================
 
 ----iterations are completed or convergence reached----
 
 Mean square residual over all n,k,spin=   22.285E-12; max=  95.699E-12
 reduced coordinates (array xred) for    1 atoms
       0.000000000000      0.000000000000      0.000000000000
 rms dE/dt=  0.0000E+00; max dE/dt=  0.0000E+00; dE/dt below (all hartree)
    1       0.000000000000      0.000000000000      0.000000000000
 
 cartesian coordinates (angstrom) at end:
    1      0.00000000000000     0.00000000000000     0.00000000000000
 
 cartesian forces (hartree/bohr) at end:
    1      0.00000000000000     0.00000000000000     0.00000000000000
 frms,max,avg= 0.0000000E+00 0.0000000E+00   0.000E+00  0.000E+00  0.000E+00 h/b
 
 cartesian forces (eV/Angstrom) at end:
    1      0.00000000000000     0.00000000000000     0.00000000000000
 frms,max,avg= 0.0000000E+00 0.0000000E+00   0.000E+00  0.000E+00  0.000E+00 e/A
 length scales=  6.822000000000  6.822000000000  6.822000000000 bohr
              =  3.610046917001  3.610046917001  3.610046917001 angstroms
 prteigrs : about to open file t76o_DS1_EIG
 Fermi (or HOMO) energy (hartree) =   0.17505   Average Vxc (hartree)=  -0.55043
 Eigenvalues (hartree) for nkpt=   3  k points:
 kpt#   1, nband= 30, wtk=  0.12500, kpt=  0.0000  0.0000  0.0000 (reduced coord)
  -3.75088   -2.29801   -2.29801   -2.29801   -0.12935    0.11684    0.11684    0.11684
   0.13827    0.13827    1.04427    1.15722    1.15722    1.15722    1.22592    1.22592
   1.22592    1.38166    1.61377    1.61377    1.61377    1.63279    1.63279    2.42636
   2.89775    2.89775    2.89775    3.19852    3.19852    3.41787
      occupation numbers for kpt#   1
   2.00000    2.00000    2.00000    2.00000    2.00000    2.00000    2.00000    2.00000
   1.99991    1.99991    0.00000    0.00000    0.00000    0.00000    0.00000    0.00000
   0.00000    0.00000    0.00000    0.00000    0.00000    0.00000    0.00000    0.00000
   0.00000    0.00000    0.00000    0.00000    0.00000    0.00000
 prteigrs : prtvol=0 or 1, do not print more k-points.
 
 
--------------------------------------------------------------------------------
 Components of total free energy (in Hartree) :
 
    Kinetic energy  =  6.40101656999610E+00
    Hartree energy  =  2.58582967233196E+01
    XC energy       = -1.37087874157541E+01
    Ewald energy    = -1.21308649131859E+02
    PspCore energy  =  1.28314572079916E+01
    Loc. psp. energy= -6.68267627738223E+01
    Spherical terms = -4.05891145700659E+01
    >>>>> Internal E= -1.97342543390195E+02
 
    -kT*entropy     = -2.33724585393899E-03
    >>>>>>>>> Etotal= -1.97344880636049E+02
 
 "Double-counting" decomposition of free energy:
    Band energy     = -2.01116685394100E+01
    Ewald energy    = -1.21308649131859E+02
    PspCore energy  =  1.28314572079916E+01
    Dble-C XC-energy= -2.15607240261770E+01
    Spherical terms = -4.71968850024168E+01
    >>>>> Internal E= -1.97346469491872E+02
 
    -kT*entropy     = -2.33724585393899E-03
    >>>> Etotal (DC)= -1.97348806737726E+02
 
  >Total energy in eV           = -5.37002729979340E+03
  >Total DC energy in eV        = -5.37013413445321E+03
--------------------------------------------------------------------------------
 
 Cartesian components of stress tensor (hartree/bohr^3)
  sigma(1 1)=  3.47447276E-03  sigma(3 2)=  0.00000000E+00
  sigma(2 2)=  3.47447276E-03  sigma(3 1)=  0.00000000E+00
  sigma(3 3)=  3.47447276E-03  sigma(2 1)=  0.00000000E+00
 
-Cartesian components of stress tensor (GPa)         [Pressure= -1.0222E+02 GPa]
- sigma(1 1)=  1.02222500E+02  sigma(3 2)=  0.00000000E+00
- sigma(2 2)=  1.02222500E+02  sigma(3 1)=  0.00000000E+00
- sigma(3 3)=  1.02222500E+02  sigma(2 1)=  0.00000000E+00
 
================================================================================
== DATASET  2 ==================================================================
-   nproc =    1
 
 mkfilename : getden/=0, take file _DEN from output of DATASET   1.
 
 Exchange-correlation functional for the present dataset will be:
  LDA: Perdew-Wang 92 LSD fit to Ceperley-Alder data - ixc=7
 Citation for XC functional:
  J.P.Perdew and Y.Wang, PRB 45, 13244 (1992)
 
 Real(R)+Recip(G) space primitive vectors, cartesian coordinates (Bohr,Bohr^-1):
 R(1)=  3.4110000  3.4110000  0.0000000  G(1)=  0.1465846  0.1465846 -0.1465846
 R(2)=  0.0000000  3.4110000  3.4110000  G(2)= -0.1465846  0.1465846  0.1465846
 R(3)=  3.4110000  0.0000000  3.4110000  G(3)=  0.1465846 -0.1465846  0.1465846
 Unit cell volume ucvol=  7.9373431E+01 bohr^3
 Angles (23,13,12)=  6.00000000E+01  6.00000000E+01  6.00000000E+01 degrees
 
 Coarse grid specifications (used for wave-functions):
 
 getcut: wavevector=  0.0000  0.0000  0.0000  ngfft=  15  15  15
         ecut(hartree)=      8.000   => boxcut(ratio)=   2.29100
 
 getcut : COMMENT -
  Note that boxcut > 2.2 ; recall that boxcut=Gcut(box)/Gcut(sphere) = 2
  is sufficient for exact treatment of convolution.
  Such a large boxcut is a waste : you could raise ecut
  e.g. ecut=   10.497394 Hartrees makes boxcut=2
 
 
 Fine grid specifications (used for densities):
 
 getcut: wavevector=  0.0000  0.0000  0.0000  ngfft=  16  16  16
         ecut(hartree)=     12.000   => boxcut(ratio)=   2.12700
--------------------------------------------------------------------------------
 
_setup2: Arith. and geom. avg. npw (full set) are      87.625      87.128
 
================================================================================
 
     iter   Etot(hartree)      deltaE(h)  residm     nres2
 ETOT  1  -197.28841744366    -1.973E+02 6.370E-01 2.085E-02
 ETOT  2  -197.34947300290    -6.106E-02 1.093E-03 2.663E-02
 ETOT  3  -197.34888649325     5.865E-04 6.310E-05 6.800E-03
 ETOT  4  -197.34879629237     9.020E-05 8.970E-07 1.035E-03
 ETOT  5  -197.34879237727     3.915E-06 4.080E-08 7.625E-04
 ETOT  6  -197.34878834206     4.035E-06 1.041E-08 5.189E-04
 ETOT  7  -197.34877999273     8.349E-06 4.195E-10 1.774E-05
 ETOT  8  -197.34877986051     1.322E-07 2.391E-10 1.021E-05
 ETOT  9  -197.34877968841     1.721E-07 9.516E-11 1.306E-08
 
 At SCF step    9   max residual=  9.52E-11 < tolwfr=  1.00E-10 =>converged.
 
 Cartesian components of stress tensor (hartree/bohr^3)
  sigma(1 1)=  2.97500863E-03  sigma(3 2)=  3.31621892E-07
  sigma(2 2)=  2.97485384E-03  sigma(3 1)=  3.04094941E-07
  sigma(3 3)=  2.97490724E-03  sigma(2 1)= -2.91142712E-07
 
 Integrated electronic density in atomic spheres:
 ------------------------------------------------
 Atom  Sphere_radius  Integrated_density
    1        2.20632         17.93441852
 
 PAW TEST:
 ==== Compensation charge inside spheres ============
 The following values must be close to each other ...
 Compensation charge over spherical meshes =     14.390420223994942
 Compensation charge over fine fft grid    =     14.390753162069634
 
 ==== Results concerning PAW augmentation regions ====
 
 Total pseudopotential strength Dij (hartree):
  -3.58597   0.22920  -0.00000   0.00000  -0.00000   0.00000  -0.00000   0.00000   0.00000  -0.00000  -0.00000  -0.00000 ...
   0.22920   0.21676   0.00000  -0.00000   0.00000  -0.00000  -0.00000   0.00000  -0.00000   0.00000   0.00000   0.00000 ...
  -0.00000   0.00000  -2.31049  -0.00000   0.00000   0.04601   0.00000  -0.00000  -0.00000   0.00000   0.00000   0.00000 ...
   0.00000  -0.00000  -0.00000  -2.31049  -0.00000   0.00000   0.04601   0.00000   0.00000  -0.00000  -0.00000  -0.00000 ...
  -0.00000   0.00000   0.00000  -0.00000  -2.31049  -0.00000   0.00000   0.04601  -0.00000   0.00000   0.00000   0.00000 ...
   0.00000  -0.00000   0.04601   0.00000  -0.00000   0.03161   0.00000  -0.00000   0.00000  -0.00000  -0.00000  -0.00000 ...
  -0.00000  -0.00000   0.00000   0.04601   0.00000   0.00000   0.03161   0.00000  -0.00000   0.00000  -0.00000   0.00000 ...
   0.00000   0.00000  -0.00000   0.00000   0.04601  -0.00000   0.00000   0.03161   0.00000  -0.00000  -0.00000  -0.00000 ...
   0.00000  -0.00000  -0.00000   0.00000  -0.00000   0.00000  -0.00000   0.00000  -0.14746  -0.00000  -0.00000  -0.00000 ...
  -0.00000   0.00000   0.00000  -0.00000   0.00000  -0.00000   0.00000  -0.00000  -0.00000  -0.14746  -0.00000   0.00000 ...
  -0.00000   0.00000   0.00000  -0.00000   0.00000  -0.00000  -0.00000  -0.00000  -0.00000  -0.00000  -0.14643  -0.00000 ...
  -0.00000   0.00000   0.00000  -0.00000   0.00000  -0.00000   0.00000  -0.00000  -0.00000   0.00000  -0.00000  -0.14746 ...
   ...  only 12  components have been written...
 
 
 Augmentation waves occupancies Rhoij:
   1.99952  -0.00490  -0.00000  -0.00000   0.00000  -0.00000  -0.00000   0.00000  -0.00000   0.00000  -0.00000   0.00000 ...
  -0.00490   0.92142   0.00000  -0.00000   0.00000   0.00000  -0.00000   0.00000  -0.00000   0.00000  -0.00000   0.00000 ...
  -0.00000   0.00000   1.99854  -0.00000   0.00000  -0.02651   0.00000   0.00000   0.00000  -0.00000  -0.00000  -0.00000 ...
  -0.00000  -0.00000  -0.00000   1.99854   0.00000   0.00000  -0.02651   0.00000   0.00000   0.00000  -0.00000   0.00000 ...
   0.00000   0.00000   0.00000   0.00000   1.99854  -0.00000   0.00000  -0.02651   0.00000   0.00000  -0.00000  -0.00000 ...
  -0.00000   0.00000  -0.02651   0.00000  -0.00000   1.46151   0.00004  -0.00004   0.00000  -0.00000   0.00000   0.00000 ...
  -0.00000  -0.00000   0.00000  -0.02651   0.00000   0.00004   1.46151   0.00003   0.00000   0.00000  -0.00000   0.00001 ...
   0.00000   0.00000   0.00000   0.00000  -0.02651  -0.00004   0.00003   1.46151  -0.00000   0.00000  -0.00000  -0.00000 ...
  -0.00000  -0.00000   0.00000   0.00000   0.00000   0.00000   0.00000  -0.00000   1.95959   0.00000   0.00000   0.00000 ...
   0.00000   0.00000  -0.00000   0.00000   0.00000  -0.00000   0.00000   0.00000   0.00000   1.95959   0.00000  -0.00000 ...
  -0.00000  -0.00000  -0.00000  -0.00000  -0.00000   0.00000  -0.00000  -0.00000   0.00000   0.00000   1.99948   0.00000 ...
   0.00000   0.00000  -0.00000   0.00000  -0.00000   0.00000   0.00001  -0.00000   0.00000  -0.00000   0.00000   1.95959 ...
   ...  only 12  components have been written...
 
 
================================================================================
 
 ----iterations are completed or convergence reached----
 
 Mean square residual over all n,k,spin=   27.500E-12; max=  95.155E-12
 reduced coordinates (array xred) for    1 atoms
       0.000000000000      0.000000000000      0.000000000000
 rms dE/dt=  7.9151E-06; max dE/dt=  1.2781E-05; dE/dt below (all hartree)
    1       0.000012781494      0.000000260795      0.000004950879
 
 cartesian coordinates (angstrom) at end:
    1      0.00000000000000     0.00000000000000     0.00000000000000
 
 cartesian forces (hartree/bohr) at end:
    1      0.00000000000000     0.00000000000000     0.00000000000000
 frms,max,avg= 0.0000000E+00 0.0000000E+00  -2.561E-06 -1.186E-06  1.110E-06 h/b
 
 cartesian forces (eV/Angstrom) at end:
    1      0.00000000000000     0.00000000000000     0.00000000000000
 frms,max,avg= 0.0000000E+00 0.0000000E+00  -1.317E-04 -6.099E-05  5.706E-05 e/A
 length scales=  6.822000000000  6.822000000000  6.822000000000 bohr
              =  3.610046917001  3.610046917001  3.610046917001 angstroms
 prteigrs : about to open file t76o_DS2_EIG
 Fermi (or HOMO) energy (hartree) =   0.17534   Average Vxc (hartree)=  -0.55020
 Eigenvalues (hartree) for nkpt=   8  k points:
 kpt#   1, nband= 30, wtk=  0.12500, kpt=  0.0000  0.0000  0.0000 (reduced coord)
  -3.74838   -2.29558   -2.29558   -2.29558   -0.12919    0.11878    0.11878    0.11878
   0.14031    0.14031    1.04430    1.15729    1.15729    1.15729    1.22651    1.22651
   1.22651    1.38141    1.61405    1.61405    1.61405    1.63327    1.63327    2.42667
   2.89800    2.89800    2.89800    3.19860    3.19860    3.41793
      occupation numbers for kpt#   1
   2.00000    2.00000    2.00000    2.00000    2.00000    2.00000    2.00000    2.00000
   1.99985    1.99985    0.00000    0.00000    0.00000    0.00000    0.00000    0.00000
   0.00000    0.00000    0.00000    0.00000    0.00000    0.00000    0.00000    0.00000
   0.00000    0.00000    0.00000    0.00000    0.00000    0.00000
 prteigrs : prtvol=0 or 1, do not print more k-points.
 
 
--------------------------------------------------------------------------------
 Components of total free energy (in Hartree) :
 
    Kinetic energy  =  6.40592038093155E+00
    Hartree energy  =  2.58833118357183E+01
    XC energy       = -1.37125758264370E+01
    Ewald energy    = -1.21308649131859E+02
    PspCore energy  =  1.28314572079916E+01
    Loc. psp. energy= -6.68583267973877E+01
    Spherical terms = -4.05875346280468E+01
    >>>>> Internal E= -1.97346396959089E+02
 
    -kT*entropy     = -2.47591711953378E-03
    >>>>>>>>> Etotal= -1.97348872876209E+02
 
 "Double-counting" decomposition of free energy:
    Band energy     = -2.00726244258411E+01
    Ewald energy    = -1.21308649131859E+02
    PspCore energy  =  1.28314572079916E+01
    Dble-C XC-energy= -2.15845188367857E+01
    Spherical terms = -4.72119685847941E+01
    >>>>> Internal E= -1.97346303771289E+02
 
    -kT*entropy     = -2.47591711953378E-03
    >>>> Etotal (DC)= -1.97348779688408E+02
 
  >Total energy in eV           = -5.37013593417287E+03
  >Total DC energy in eV        = -5.37013339840385E+03
--------------------------------------------------------------------------------
 
 Cartesian components of stress tensor (hartree/bohr^3)
  sigma(1 1)=  2.97500863E-03  sigma(3 2)=  3.31621892E-07
  sigma(2 2)=  2.97485384E-03  sigma(3 1)=  3.04094941E-07
  sigma(3 3)=  2.97490724E-03  sigma(2 1)= -2.91142712E-07
 
-Cartesian components of stress tensor (GPa)         [Pressure= -8.7525E+01 GPa]
- sigma(1 1)=  8.75277610E+01  sigma(3 2)=  9.75665126E-03
- sigma(2 2)=  8.75232068E+01  sigma(3 1)=  8.94678054E-03
- sigma(3 3)=  8.75247781E+01  sigma(2 1)= -8.56571287E-03
 
================================================================================
== DATASET  3 ==================================================================
-   nproc =    1
 
 mkfilename : getwfk/=0, take file _WFK from output of DATASET   2.
 
 mkfilename : getden/=0, take file _DEN from output of DATASET   2.
 
 Exchange-correlation functional for the present dataset will be:
  LDA: Perdew-Wang 92 LSD fit to Ceperley-Alder data - ixc=7
 Citation for XC functional:
  J.P.Perdew and Y.Wang, PRB 45, 13244 (1992)
 
 Real(R)+Recip(G) space primitive vectors, cartesian coordinates (Bohr,Bohr^-1):
 R(1)=  3.4110000  3.4110000  0.0000000  G(1)=  0.1465846  0.1465846 -0.1465846
 R(2)=  0.0000000  3.4110000  3.4110000  G(2)= -0.1465846  0.1465846  0.1465846
 R(3)=  3.4110000  0.0000000  3.4110000  G(3)=  0.1465846 -0.1465846  0.1465846
 Unit cell volume ucvol=  7.9373431E+01 bohr^3
 Angles (23,13,12)=  6.00000000E+01  6.00000000E+01  6.00000000E+01 degrees
 
 Coarse grid specifications (used for wave-functions):
 
 getcut: wavevector=  0.0000  0.0000  0.0000  ngfft=  15  15  15
         ecut(hartree)=      8.000   => boxcut(ratio)=   2.29100
 
 getcut : COMMENT -
  Note that boxcut > 2.2 ; recall that boxcut=Gcut(box)/Gcut(sphere) = 2
  is sufficient for exact treatment of convolution.
  Such a large boxcut is a waste : you could raise ecut
  e.g. ecut=   10.497394 Hartrees makes boxcut=2
 
 
 Fine grid specifications (used for densities):
 
 getcut: wavevector=  0.0000  0.0000  0.0000  ngfft=  16  16  16
         ecut(hartree)=     12.000   => boxcut(ratio)=   2.12700
--------------------------------------------------------------------------------
 
-inwffil : will read wavefunctions from disk file t76o_DS2_WFK
_setup2: Arith. and geom. avg. npw (full set) are      87.625      87.128
 
================================================================================
 
     iter   Etot(hartree)      deltaE(h)  residm     nres2
 ETOT  1  -197.34877968848    -1.973E+02 9.012E-11 1.245E-08
 
 At SCF step    1   max residual=  9.01E-11 < tolwfr=  1.00E-10 =>converged.
 
 Cartesian components of stress tensor (hartree/bohr^3)
  sigma(1 1)=  2.97391917E-03  sigma(3 2)= -1.23830293E-07
  sigma(2 2)=  2.97397133E-03  sigma(3 1)= -1.12734476E-07
  sigma(3 3)=  2.97396678E-03  sigma(2 1)=  1.04375585E-07
 
 Integrated electronic density in atomic spheres:
 ------------------------------------------------
 Atom  Sphere_radius  Integrated_density
    1        2.20632         17.93438952
 
 PAW TEST:
 ==== Compensation charge inside spheres ============
 The following values must be close to each other ...
 Compensation charge over spherical meshes =     14.390428067960727
 Compensation charge over fine fft grid    =     14.390693376047318
 
 ==== Results concerning PAW augmentation regions ====
 
 Total pseudopotential strength Dij (hartree):
  -3.58597   0.22920   0.00000   0.00000  -0.00000  -0.00000  -0.00000   0.00000  -0.00000   0.00000   0.00000   0.00000 ...
   0.22920   0.21676  -0.00000  -0.00000   0.00000  -0.00000   0.00000  -0.00000   0.00000  -0.00000  -0.00000  -0.00000 ...
   0.00000  -0.00000  -2.31048   0.00000  -0.00000   0.04601  -0.00000   0.00000  -0.00000   0.00000  -0.00000  -0.00000 ...
   0.00000  -0.00000   0.00000  -2.31048   0.00000  -0.00000   0.04601  -0.00000  -0.00000   0.00000   0.00000  -0.00000 ...
  -0.00000   0.00000  -0.00000   0.00000  -2.31048   0.00000  -0.00000   0.04601   0.00000  -0.00000   0.00000   0.00000 ...
  -0.00000  -0.00000   0.04601  -0.00000   0.00000   0.03161  -0.00000   0.00000   0.00000  -0.00000   0.00000   0.00000 ...
  -0.00000   0.00000  -0.00000   0.04601  -0.00000  -0.00000   0.03161  -0.00000   0.00000  -0.00000  -0.00000   0.00000 ...
   0.00000  -0.00000   0.00000  -0.00000   0.04601   0.00000  -0.00000   0.03161  -0.00000   0.00000  -0.00000  -0.00000 ...
  -0.00000   0.00000  -0.00000  -0.00000   0.00000   0.00000   0.00000  -0.00000  -0.14746   0.00000   0.00000   0.00000 ...
   0.00000  -0.00000   0.00000   0.00000  -0.00000  -0.00000  -0.00000   0.00000   0.00000  -0.14746   0.00000  -0.00000 ...
   0.00000  -0.00000  -0.00000   0.00000   0.00000   0.00000  -0.00000  -0.00000   0.00000   0.00000  -0.14642   0.00000 ...
   0.00000  -0.00000  -0.00000  -0.00000   0.00000   0.00000   0.00000  -0.00000   0.00000  -0.00000   0.00000  -0.14746 ...
   ...  only 12  components have been written...
 
 
 Augmentation waves occupancies Rhoij:
   1.99952  -0.00490   0.00000   0.00000   0.00000   0.00000  -0.00000   0.00000  -0.00000   0.00000   0.00000   0.00000 ...
  -0.00490   0.92143   0.00000   0.00000   0.00000  -0.00000   0.00000  -0.00000   0.00000  -0.00000   0.00000  -0.00000 ...
   0.00000   0.00000   1.99854   0.00000  -0.00000  -0.02651   0.00000  -0.00000   0.00000   0.00000  -0.00000  -0.00000 ...
   0.00000   0.00000   0.00000   1.99854   0.00000   0.00000  -0.02651   0.00000  -0.00000   0.00000   0.00000   0.00000 ...
   0.00000   0.00000  -0.00000   0.00000   1.99854  -0.00000  -0.00000  -0.02651   0.00000   0.00000  -0.00000  -0.00000 ...
   0.00000  -0.00000  -0.02651   0.00000  -0.00000   1.46157  -0.00001   0.00001  -0.00000   0.00000  -0.00000   0.00000 ...
  -0.00000   0.00000   0.00000  -0.02651  -0.00000  -0.00001   1.46157  -0.00001   0.00000  -0.00000   0.00000  -0.00000 ...
   0.00000  -0.00000  -0.00000   0.00000  -0.02651   0.00001  -0.00001   1.46157   0.00000   0.00000   0.00000   0.00000 ...
  -0.00000   0.00000   0.00000  -0.00000   0.00000  -0.00000   0.00000   0.00000   1.95958  -0.00000  -0.00000  -0.00000 ...
   0.00000  -0.00000   0.00000   0.00000   0.00000   0.00000  -0.00000   0.00000  -0.00000   1.95958  -0.00000   0.00000 ...
   0.00000   0.00000  -0.00000   0.00000  -0.00000  -0.00000   0.00000   0.00000  -0.00000  -0.00000   1.99948  -0.00000 ...
   0.00000  -0.00000  -0.00000   0.00000  -0.00000   0.00000  -0.00000   0.00000  -0.00000   0.00000  -0.00000   1.95958 ...
   ...  only 12  components have been written...
 
 
 
 ======================================================================================
 
 == Start computation of Projected Local Orbitals Wannier functions ==   2
 
 == Lower and upper values of the selected bands    5   10
 == Number of atoms                                      1
 == Atoms selected                                1
 == Nb of angular momenta used for each atom      1
 == Value of the angular momenta for atom 1 is :  2
 == Value of the projectors      for atom 1 is :  5
 
 == For each k-point of the path, gives the eigenvalues (in eV) of the Hamiltonian in the Wannier basis
 
   (The band structure is shifted by fermie =       4.7712 eV )
 
 Wannier band structure for atom  1
 1      -1.539      -1.539      -1.539      -0.953      -0.953
 2      -4.085      -1.998      -1.998      -0.571      -0.571
 3      -4.085      -1.998      -1.998      -0.571      -0.571
 4      -3.880      -3.308      -0.590      -0.467      -0.467
 5      -4.085      -1.998      -1.998      -0.571      -0.571
 6      -3.880      -3.308      -0.590      -0.467      -0.467
 7      -3.880      -3.308      -0.590      -0.467      -0.467
 8      -4.085      -1.998      -1.998      -0.571      -0.571
 
======================================================================
 Calculating and writing out Kohn-Sham electronic Structure file
 Using conjugate gradient wavefunctions and energies (kssform=3)
 number of Gamma centered plane waves    141
 number of Gamma centered shells    141
 number of bands      2
 maximum angular momentum components      3
 Conjugate gradient eigenvalues
   k    eigenvalues [Hartree]
   1     -3.7484 -2.2956
   2     -3.7477 -2.3005
   3     -3.7477 -2.3005
   4     -3.7475 -2.3003
   5     -3.7477 -2.3005
   6     -3.7475 -2.3003
   7     -3.7475 -2.3003
   8     -3.7477 -2.3005
 Test on the normalization of the wavefunctions
  min sum_G |a(n,k,G)| =  1.000000
  max sum_G |a(n,k,G)| =  1.000000
 Test on the orthogonalization of the wavefunctions
  min sum_G a(n,k,G)a(n',k,G) =  0.000000
  max sum_G a(n,k,G)a(n',k,G) =  0.000000
 
================================================================================
 
 ----iterations are completed or convergence reached----
 
 Mean square residual over all n,k,spin=   17.006E-12; max=  90.122E-12
 reduced coordinates (array xred) for    1 atoms
       0.000000000000      0.000000000000      0.000000000000
 rms dE/dt=  2.8862E-06; max dE/dt=  4.2234E-06; dE/dt below (all hartree)
    1       0.000004223393     -0.000001767678      0.000002007300
 
 cartesian coordinates (angstrom) at end:
    1      0.00000000000000     0.00000000000000     0.00000000000000
 
 cartesian forces (hartree/bohr) at end:
    1      0.00000000000000     0.00000000000000     0.00000000000000
 frms,max,avg= 0.0000000E+00 0.0000000E+00  -1.172E-06 -6.573E-08  5.840E-07 h/b
 
 cartesian forces (eV/Angstrom) at end:
    1      0.00000000000000     0.00000000000000     0.00000000000000
 frms,max,avg= 0.0000000E+00 0.0000000E+00  -6.029E-05 -3.380E-06  3.003E-05 e/A
 length scales=  6.822000000000  6.822000000000  6.822000000000 bohr
              =  3.610046917001  3.610046917001  3.610046917001 angstroms
 prteigrs : about to open file t76o_DS3_EIG
 Fermi (or HOMO) energy (hartree) =   0.17534   Average Vxc (hartree)=  -0.55020
 Eigenvalues (hartree) for nkpt=   8  k points:
 kpt#   1, nband= 30, wtk=  0.12500, kpt=  0.0000  0.0000  0.0000 (reduced coord)
  -3.74837   -2.29558   -2.29557   -2.29557   -0.12919    0.11878    0.11878    0.11878
   0.14032    0.14032    1.04429    1.15729    1.15729    1.15729    1.22651    1.22651
   1.22651    1.38142    1.61405    1.61405    1.61405    1.63328    1.63328    2.42667
   2.89800    2.89800    2.89800    3.19860    3.19860    3.41794
      occupation numbers for kpt#   1
   2.00000    2.00000    2.00000    2.00000    2.00000    2.00000    2.00000    2.00000
   1.99985    1.99985    0.00000    0.00000    0.00000    0.00000    0.00000    0.00000
   0.00000    0.00000    0.00000    0.00000    0.00000    0.00000    0.00000    0.00000
   0.00000    0.00000    0.00000    0.00000    0.00000    0.00000
 prteigrs : prtvol=0 or 1, do not print more k-points.
 
 
--------------------------------------------------------------------------------
 Components of total free energy (in Hartree) :
 
    Kinetic energy  =  6.40594167732872E+00
    Hartree energy  =  2.58832811406067E+01
    XC energy       = -1.37125696914425E+01
    Ewald energy    = -1.21308649131859E+02
    PspCore energy  =  1.28314572079916E+01
    Loc. psp. energy= -6.68582949273291E+01
    Spherical terms = -4.05874487499413E+01
    >>>>> Internal E= -1.97346282474645E+02
 
    -kT*entropy     = -2.47639133537505E-03
    >>>>>>>>> Etotal= -1.97348758865981E+02
 
 "Double-counting" decomposition of free energy:
    Band energy     = -2.00725061056871E+01
    Ewald energy    = -1.21308649131859E+02
    PspCore energy  =  1.28314572079916E+01
    Dble-C XC-energy= -2.15844901001125E+01
    Spherical terms = -4.72121151674785E+01
    >>>>> Internal E= -1.97346303297146E+02
 
    -kT*entropy     = -2.47639133537505E-03
    >>>> Etotal (DC)= -1.97348779688481E+02
 
  >Total energy in eV           = -5.37013283179678E+03
  >Total DC energy in eV        = -5.37013339840584E+03
--------------------------------------------------------------------------------
 
 Cartesian components of stress tensor (hartree/bohr^3)
  sigma(1 1)=  2.97391917E-03  sigma(3 2)= -1.23830293E-07
  sigma(2 2)=  2.97397133E-03  sigma(3 1)= -1.12734476E-07
  sigma(3 3)=  2.97396678E-03  sigma(2 1)=  1.04375585E-07
 
-Cartesian components of stress tensor (GPa)         [Pressure= -8.7497E+01 GPa]
- sigma(1 1)=  8.74957079E+01  sigma(3 2)= -3.64321238E-03
- sigma(2 2)=  8.74972427E+01  sigma(3 1)= -3.31676223E-03
- sigma(3 3)=  8.74971088E+01  sigma(2 1)=  3.07083522E-03
 
== END DATASET(S) ==============================================================
================================================================================
  
 -outvars: echo values of variables after computation  --------
            acell      6.8220000000E+00  6.8220000000E+00  6.8220000000E+00 Bohr
              amu      6.35460000E+01
             ecut      8.00000000E+00 Hartree
           etotal1    -1.9734880674E+02
           etotal2    -1.9734877969E+02
           etotal3    -1.9734877969E+02
            fcart1     0.0000000000E+00  0.0000000000E+00  0.0000000000E+00
            fcart2     0.0000000000E+00  0.0000000000E+00  0.0000000000E+00
            fcart3     0.0000000000E+00  0.0000000000E+00  0.0000000000E+00
-          fftalg         312
           getden1          0
           getden2         -1
           getden3          2
           getwfk1          0
           getwfk2          0
           getwfk3          2
           iatsph3       1
           istwfk1       1    1    1
           istwfk2       1    1    1    1    1    1    1    1
           istwfk3       1    1    1    1    1    1    1    1
              ixc           7
           jdtset        1    2    3
              kpt1     0.00000000E+00  0.00000000E+00  0.00000000E+00
                       5.00000000E-01  0.00000000E+00  0.00000000E+00
                       5.00000000E-01  5.00000000E-01  0.00000000E+00
              kpt2     0.00000000E+00  0.00000000E+00  0.00000000E+00
                       5.00000000E-01  0.00000000E+00  0.00000000E+00
                       0.00000000E+00  5.00000000E-01  0.00000000E+00
                       5.00000000E-01  5.00000000E-01  0.00000000E+00
                       0.00000000E+00  0.00000000E+00  5.00000000E-01
                       5.00000000E-01  0.00000000E+00  5.00000000E-01
                       0.00000000E+00  5.00000000E-01  5.00000000E-01
                       5.00000000E-01  5.00000000E-01  5.00000000E-01
              kpt3     0.00000000E+00  0.00000000E+00  0.00000000E+00
                       5.00000000E-01  0.00000000E+00  0.00000000E+00
                       0.00000000E+00  5.00000000E-01  0.00000000E+00
                       5.00000000E-01  5.00000000E-01  0.00000000E+00
                       0.00000000E+00  0.00000000E+00  5.00000000E-01
                       5.00000000E-01  0.00000000E+00  5.00000000E-01
                       0.00000000E+00  5.00000000E-01  5.00000000E-01
                       5.00000000E-01  5.00000000E-01  5.00000000E-01
         kptrlatt        2    0    0      0    2    0      0    0    2
          kptrlen      9.64776492E+00
          kssform1          1
          kssform2          1
          kssform3          3
P           mkmem1          3
P           mkmem2          8
P           mkmem3          8
            natom           1
           natsph3       1
            nband1         30
            nband2         30
            nband3         30
         nbandkss1          0
         nbandkss2          0
         nbandkss3          2
           ndtset           3
            ngfft          15      15      15
          ngfftdg          16      16      16
             nkpt1          3
             nkpt2          8
             nkpt3          8
            nline1          5
            nline2          3
            nline3          5
           nnsclo1          2
           nnsclo2          3
           nnsclo3          2
            nstep          20
             nsym1         48
             nsym2          1
             nsym3          1
           ntypat           1
              occ1     2.000000  2.000000  2.000000  2.000000  2.000000  2.000000
                       2.000000  2.000000  1.999910  1.999910  0.000000  0.000000
                       0.000000  0.000000  0.000000  0.000000  0.000000  0.000000
                       0.000000  0.000000  0.000000  0.000000  0.000000  0.000000
                       0.000000  0.000000  0.000000  0.000000  0.000000  0.000000
                       2.000000  2.000000  2.000000  2.000000  2.000000  2.000000
                       2.000000  1.996057  1.996057  1.526847  0.000000  0.000000
                       0.000000  0.000000  0.000000  0.000000  0.000000  0.000000
                       0.000000  0.000000  0.000000  0.000000  0.000000  0.000000
                       0.000000  0.000000  0.000000  0.000000  0.000000  0.000000
                       2.000000  2.000000  2.000000  2.000000  2.000000  2.000000
                       1.996724  1.989027  1.989027  0.000000  0.000000  0.000000
                       0.000000  0.000000  0.000000  0.000000  0.000000  0.000000
                       0.000000  0.000000  0.000000  0.000000  0.000000  0.000000
                       0.000000  0.000000  0.000000  0.000000  0.000000  0.000000
              occ2     2.000000  2.000000  2.000000  2.000000  2.000000  2.000000
                       2.000000  2.000000  1.999855  1.999855  0.000000  0.000000
                       0.000000  0.000000  0.000000  0.000000  0.000000  0.000000
                       0.000000  0.000000  0.000000  0.000000  0.000000  0.000000
                       0.000000  0.000000  0.000000  0.000000  0.000000  0.000000
                       2.000000  2.000000  2.000000  2.000000  2.000000  2.000000
                       2.000000  1.993416  1.993415  1.545005  0.000000  0.000000
                       0.000000  0.000000  0.000000  0.000000  0.000000  0.000000
                       0.000000  0.000000  0.000000  0.000000  0.000000  0.000000
                       0.000000  0.000000  0.000000  0.000000  0.000000  0.000000
                       2.000000  2.000000  2.000000  2.000000  2.000000  2.000000
                       2.000000  1.993418  1.993415  1.545159  0.000000  0.000000
                       0.000000  0.000000  0.000000  0.000000  0.000000  0.000000
                       0.000000  0.000000  0.000000  0.000000  0.000000  0.000000
                       0.000000  0.000000  0.000000  0.000000  0.000000  0.000000
                       2.000000  2.000000  2.000000  2.000000  2.000000  2.000000
                       1.994572  1.981468  1.981460  0.000000  0.000000  0.000000
                       0.000000  0.000000  0.000000  0.000000  0.000000  0.000000
                       0.000000  0.000000  0.000000  0.000000  0.000000  0.000000
                       0.000000  0.000000  0.000000  0.000000  0.000000  0.000000
                       2.000000  2.000000  2.000000  2.000000  2.000000  2.000000
                       2.000000  1.993419  1.993414  1.545145  0.000000  0.000000
                       0.000000  0.000000  0.000000  0.000000  0.000000  0.000000
                       0.000000  0.000000  0.000000  0.000000  0.000000  0.000000
                       0.000000  0.000000  0.000000  0.000000  0.000000  0.000000
                       2.000000  2.000000  2.000000  2.000000  2.000000  2.000000
                       1.994573  1.981466  1.981458  0.000000  0.000000  0.000000
                       0.000000  0.000000  0.000000  0.000000  0.000000  0.000000
                       0.000000  0.000000  0.000000  0.000000  0.000000  0.000000
                       0.000000  0.000000  0.000000  0.000000  0.000000  0.000000
                       2.000000  2.000000  2.000000  2.000000  2.000000  2.000000
                       1.994571  1.981470  1.981461  0.000000  0.000000  0.000000
                       0.000000  0.000000  0.000000  0.000000  0.000000  0.000000
                       0.000000  0.000000  0.000000  0.000000  0.000000  0.000000
                       0.000000  0.000000  0.000000  0.000000  0.000000  0.000000
                       2.000000  2.000000  2.000000  2.000000  2.000000  2.000000
                       2.000000  1.993418  1.993414  1.545156  0.000000  0.000000
                       0.000000  0.000000  0.000000  0.000000  0.000000  0.000000
                       0.000000  0.000000  0.000000  0.000000  0.000000  0.000000
                       0.000000  0.000000  0.000000  0.000000  0.000000  0.000000
              occ3     2.000000  2.000000  2.000000  2.000000  2.000000  2.000000
                       2.000000  2.000000  1.999855  1.999855  0.000000  0.000000
                       0.000000  0.000000  0.000000  0.000000  0.000000  0.000000
                       0.000000  0.000000  0.000000  0.000000  0.000000  0.000000
                       0.000000  0.000000  0.000000  0.000000  0.000000  0.000000
                       2.000000  2.000000  2.000000  2.000000  2.000000  2.000000
                       2.000000  1.993407  1.993407  1.545216  0.000000  0.000000
                       0.000000  0.000000  0.000000  0.000000  0.000000  0.000000
                       0.000000  0.000000  0.000000  0.000000  0.000000  0.000000
                       0.000000  0.000000  0.000000  0.000000  0.000000  0.000000
                       2.000000  2.000000  2.000000  2.000000  2.000000  2.000000
                       2.000000  1.993407  1.993406  1.545170  0.000000  0.000000
                       0.000000  0.000000  0.000000  0.000000  0.000000  0.000000
                       0.000000  0.000000  0.000000  0.000000  0.000000  0.000000
                       0.000000  0.000000  0.000000  0.000000  0.000000  0.000000
                       2.000000  2.000000  2.000000  2.000000  2.000000  2.000000
                       1.994564  1.981437  1.981435  0.000000  0.000000  0.000000
                       0.000000  0.000000  0.000000  0.000000  0.000000  0.000000
                       0.000000  0.000000  0.000000  0.000000  0.000000  0.000000
                       0.000000  0.000000  0.000000  0.000000  0.000000  0.000000
                       2.000000  2.000000  2.000000  2.000000  2.000000  2.000000
                       2.000000  1.993407  1.993406  1.545174  0.000000  0.000000
                       0.000000  0.000000  0.000000  0.000000  0.000000  0.000000
                       0.000000  0.000000  0.000000  0.000000  0.000000  0.000000
                       0.000000  0.000000  0.000000  0.000000  0.000000  0.000000
                       2.000000  2.000000  2.000000  2.000000  2.000000  2.000000
                       1.994564  1.981438  1.981436  0.000000  0.000000  0.000000
                       0.000000  0.000000  0.000000  0.000000  0.000000  0.000000
                       0.000000  0.000000  0.000000  0.000000  0.000000  0.000000
                       0.000000  0.000000  0.000000  0.000000  0.000000  0.000000
                       2.000000  2.000000  2.000000  2.000000  2.000000  2.000000
                       1.994564  1.981437  1.981434  0.000000  0.000000  0.000000
                       0.000000  0.000000  0.000000  0.000000  0.000000  0.000000
                       0.000000  0.000000  0.000000  0.000000  0.000000  0.000000
                       0.000000  0.000000  0.000000  0.000000  0.000000  0.000000
                       2.000000  2.000000  2.000000  2.000000  2.000000  2.000000
                       2.000000  1.993407  1.993406  1.545172  0.000000  0.000000
                       0.000000  0.000000  0.000000  0.000000  0.000000  0.000000
                       0.000000  0.000000  0.000000  0.000000  0.000000  0.000000
                       0.000000  0.000000  0.000000  0.000000  0.000000  0.000000
           occopt           3
        pawecutdg      1.20000000E+01 Hartree
          pawovlp     -1.0000000000E+00
        pawprtvol           3
     plowan_bandi1          0
     plowan_bandi2          0
     plowan_bandi3          5
     plowan_bandf1          0
     plowan_bandf2          0
     plowan_bandf3         10
   plowan_compute1          0
   plowan_compute2          0
   plowan_compute3          1
     plowan_natom1          0
     plowan_natom2          0
     plowan_natom3          1
        plowan_nt1          0
        plowan_nt2          0
        plowan_nt3          1
 plowan_realspace1          0
 plowan_realspace2          0
 plowan_realspace3          1
        plowan_it3       0    0    0
     plowan_iatom3       1
       plowan_nbl3       1
     plowan_lcalc3       2
  plowan_projcalc3       5
           prtdos1          0
           prtdos2          0
           prtdos3          3
            rprim      5.0000000000E-01  5.0000000000E-01  0.0000000000E+00
                       0.0000000000E+00  5.0000000000E-01  5.0000000000E-01
                       5.0000000000E-01  0.0000000000E+00  5.0000000000E-01
          spgroup1        225
          spgroup2          1
          spgroup3          1
           strten1     3.4744727553E-03  3.4744727553E-03  3.4744727553E-03
                       0.0000000000E+00  0.0000000000E+00  0.0000000000E+00
           strten2     2.9750086288E-03  2.9748538353E-03  2.9749072413E-03
                       3.3162189191E-07  3.0409494069E-07 -2.9114271171E-07
           strten3     2.9739191666E-03  2.9739713340E-03  2.9739667805E-03
                      -1.2383029281E-07 -1.1273447567E-07  1.0437558519E-07
           symafm1       1    1    1    1    1    1    1    1    1    1
                         1    1    1    1    1    1    1    1    1    1
                         1    1    1    1    1    1    1    1    1    1
                         1    1    1    1    1    1    1    1    1    1
                         1    1    1    1    1    1    1    1
           symafm2       1
           symafm3       1
           symrel1     1  0  0   0  1  0   0  0  1      -1  0  0   0 -1  0   0  0 -1
                       0 -1  1   0 -1  0   1 -1  0       0  1 -1   0  1  0  -1  1  0
                      -1  0  0  -1  0  1  -1  1  0       1  0  0   1  0 -1   1 -1  0
                       0  1 -1   1  0 -1   0  0 -1       0 -1  1  -1  0  1   0  0  1
                      -1  0  0  -1  1  0  -1  0  1       1  0  0   1 -1  0   1  0 -1
                       0 -1  1   1 -1  0   0 -1  0       0  1 -1  -1  1  0   0  1  0
                       1  0  0   0  0  1   0  1  0      -1  0  0   0  0 -1   0 -1  0
                       0  1 -1   0  0 -1   1  0 -1       0 -1  1   0  0  1  -1  0  1
                      -1  0  1  -1  1  0  -1  0  0       1  0 -1   1 -1  0   1  0  0
                       0 -1  0   1 -1  0   0 -1  1       0  1  0  -1  1  0   0  1 -1
                       1  0 -1   0  0 -1   0  1 -1      -1  0  1   0  0  1   0 -1  1
                       0  1  0   0  0  1   1  0  0       0 -1  0   0  0 -1  -1  0  0
                       1  0 -1   0  1 -1   0  0 -1      -1  0  1   0 -1  1   0  0  1
                       0 -1  0   0 -1  1   1 -1  0       0  1  0   0  1 -1  -1  1  0
                      -1  0  1  -1  0  0  -1  1  0       1  0 -1   1  0  0   1 -1  0
                       0  1  0   1  0  0   0  0  1       0 -1  0  -1  0  0   0  0 -1
                       0  0 -1   0  1 -1   1  0 -1       0  0  1   0 -1  1  -1  0  1
                       1 -1  0   0 -1  1   0 -1  0      -1  1  0   0  1 -1   0  1  0
                       0  0  1   1  0  0   0  1  0       0  0 -1  -1  0  0   0 -1  0
                      -1  1  0  -1  0  0  -1  0  1       1 -1  0   1  0  0   1  0 -1
                       0  0  1   0  1  0   1  0  0       0  0 -1   0 -1  0  -1  0  0
                       1 -1  0   0 -1  0   0 -1  1      -1  1  0   0  1  0   0  1 -1
                       0  0 -1   1  0 -1   0  1 -1       0  0  1  -1  0  1   0 -1  1
                      -1  1  0  -1  0  1  -1  0  0       1 -1  0   1  0 -1   1  0  0
           symrel2     1  0  0   0  1  0   0  0  1
           symrel3     1  0  0   0  1  0   0  0  1
            tnons1     0.0000000  0.0000000  0.0000000     0.0000000  0.0000000  0.0000000
                       0.0000000  0.0000000  0.0000000     0.0000000  0.0000000  0.0000000
                       0.0000000  0.0000000  0.0000000     0.0000000  0.0000000  0.0000000
                       0.0000000  0.0000000  0.0000000     0.0000000  0.0000000  0.0000000
                       0.0000000  0.0000000  0.0000000     0.0000000  0.0000000  0.0000000
                       0.0000000  0.0000000  0.0000000     0.0000000  0.0000000  0.0000000
                       0.0000000  0.0000000  0.0000000     0.0000000  0.0000000  0.0000000
                       0.0000000  0.0000000  0.0000000     0.0000000  0.0000000  0.0000000
                       0.0000000  0.0000000  0.0000000     0.0000000  0.0000000  0.0000000
                       0.0000000  0.0000000  0.0000000     0.0000000  0.0000000  0.0000000
                       0.0000000  0.0000000  0.0000000     0.0000000  0.0000000  0.0000000
                       0.0000000  0.0000000  0.0000000     0.0000000  0.0000000  0.0000000
                       0.0000000  0.0000000  0.0000000     0.0000000  0.0000000  0.0000000
                       0.0000000  0.0000000  0.0000000     0.0000000  0.0000000  0.0000000
                       0.0000000  0.0000000  0.0000000     0.0000000  0.0000000  0.0000000
                       0.0000000  0.0000000  0.0000000     0.0000000  0.0000000  0.0000000
                       0.0000000  0.0000000  0.0000000     0.0000000  0.0000000  0.0000000
                       0.0000000  0.0000000  0.0000000     0.0000000  0.0000000  0.0000000
                       0.0000000  0.0000000  0.0000000     0.0000000  0.0000000  0.0000000
                       0.0000000  0.0000000  0.0000000     0.0000000  0.0000000  0.0000000
                       0.0000000  0.0000000  0.0000000     0.0000000  0.0000000  0.0000000
                       0.0000000  0.0000000  0.0000000     0.0000000  0.0000000  0.0000000
                       0.0000000  0.0000000  0.0000000     0.0000000  0.0000000  0.0000000
                       0.0000000  0.0000000  0.0000000     0.0000000  0.0000000  0.0000000
            tnons2     0.0000000  0.0000000  0.0000000
            tnons3     0.0000000  0.0000000  0.0000000
           tolwfr      1.00000000E-10
           tsmear      3.67490000E-03 Hartree
            typat      1
           useylm           1
              wtk1       0.12500    0.50000    0.37500
              wtk2       0.12500    0.12500    0.12500    0.12500    0.12500    0.12500
                         0.12500    0.12500
              wtk3       0.12500    0.12500    0.12500    0.12500    0.12500    0.12500
                         0.12500    0.12500
            znucl       29.00000
 
================================================================================


- Timing analysis has been suppressed with timopt=0



================================================================================

 Suggested references for the acknowledgment of ABINIT usage.

 The users of ABINIT have little formal obligations with respect to the ABINIT group
 (those specified in the GNU General Public License, http://www.gnu.org/copyleft/gpl.txt).
 However, it is common practice in the scientific literature,
 to acknowledge the efforts of people that have made the research possible.
 In this spirit, please find below suggested citations of work written by ABINIT developers,
 corresponding to implementations inside of ABINIT that you have used in the present run.
 Note also that it will be of great value to readers of publications presenting these results,
 to read papers enabling them to understand the theoretical formalism and details
 of the ABINIT implementation.
 For information on why they are suggested, see also https://docs.abinit.org/theory/acknowledgments.
-
- [1] Implementation of the Projector Augmented-Wave Method in the ABINIT code.
- M. Torrent, F. Jollet, F. Bottin, G. Zerah, and X. Gonze Comput. Mat. Science 42, 337, (2008).
- Comment : PAW calculations. Strong suggestion to cite this paper.
- DOI and bibtex : see https://docs.abinit.org/theory/bibliography/#torrent2008
-
- [2] Recent developments in the ABINIT software package.
- Computer Phys. Comm. 205, 106 (2016).
- X.Gonze, F.Jollet, F.Abreu Araujo, D.Adams, B.Amadon, T.Applencourt,
- C.Audouze, J.-M.Beuken, J.Bieder, A.Bokhanchuk, E.Bousquet, F.Bruneval
- D.Caliste, M.Cote, F.Dahm, F.Da Pieve, M.Delaveau, M.Di Gennaro,
- B.Dorado, C.Espejo, G.Geneste, L.Genovese, A.Gerossier, M.Giantomassi,
- Y.Gillet, D.R.Hamann, L.He, G.Jomard, J.Laflamme Janssen, S.Le Roux,
- A.Levitt, A.Lherbier, F.Liu, I.Lukacevic, A.Martin, C.Martins,
- M.J.T.Oliveira, S.Ponce, Y.Pouillon, T.Rangel, G.-M.Rignanese,
- A.H.Romero, B.Rousseau, O.Rubel, A.A.Shukri, M.Stankovski, M.Torrent,
- M.J.Van Setten, B.Van Troeye, M.J.Verstraete, D.Waroquier, J.Wiktor,
- B.Xu, A.Zhou, J.W.Zwanziger.
- Comment : the fourth generic paper describing the ABINIT project.
- Note that a version of this paper, that is not formatted for Computer Phys. Comm. 
- is available at https://www.abinit.org/about/ABINIT16.pdf .
- The licence allows the authors to put it on the Web.
- DOI and bibtex : see https://docs.abinit.org/theory/bibliography/#gonze2016
-
- [3] ABINIT : First-principles approach of materials and nanosystem properties.
- Computer Phys. Comm. 180, 2582-2615 (2009).
- X. Gonze, B. Amadon, P.-M. Anglade, J.-M. Beuken, F. Bottin, P. Boulanger, F. Bruneval,
- D. Caliste, R. Caracas, M. Cote, T. Deutsch, L. Genovese, Ph. Ghosez, M. Giantomassi
- S. Goedecker, D.R. Hamann, P. Hermet, F. Jollet, G. Jomard, S. Leroux, M. Mancini, S. Mazevet,
- M.J.T. Oliveira, G. Onida, Y. Pouillon, T. Rangel, G.-M. Rignanese, D. Sangalli, R. Shaltaf,
- M. Torrent, M.J. Verstraete, G. Zerah, J.W. Zwanziger
- Comment : the third generic paper describing the ABINIT project.
- Note that a version of this paper, that is not formatted for Computer Phys. Comm. 
- is available at https://www.abinit.org/about/ABINIT_CPC_v10.pdf .
- The licence allows the authors to put it on the Web.
- DOI and bibtex : see https://docs.abinit.org/theory/bibliography/#gonze2009
-
- [4] A brief introduction to the ABINIT software package.
- Z. Kristallogr. 220, 558-562 (2005).
- X. Gonze, G.-M. Rignanese, M. Verstraete, J.-M. Beuken, Y. Pouillon, R. Caracas, F. Jollet,
- M. Torrent, G. Zerah, M. Mikami, Ph. Ghosez, M. Veithen, J.-Y. Raty, V. Olevano, F. Bruneval,
- L. Reining, R. Godby, G. Onida, D.R. Hamann, and D.C. Allan.
- Comment : the second generic paper describing the ABINIT project. Note that this paper
- should be cited especially if you are using the GW part of ABINIT, as several authors
- of this part are not in the list of authors of the first or third paper.
- The .pdf of the latter paper is available at https://www.abinit.org/about/zfk_0505-06_558-562.pdf.
- Note that it should not redistributed (Copyright by Oldenburg Wissenshaftverlag,
- the licence allows the authors to put it on the Web).
- DOI and bibtex : see https://docs.abinit.org/theory/bibliography/#gonze2005
-
- And optionally:
-
- [5] First-principles computation of material properties : the ABINIT software project. 
- X. Gonze, J.-M. Beuken, R. Caracas, F. Detraux, M. Fuchs, G.-M. Rignanese, L. Sindic,
- M. Verstraete, G. Zerah, F. Jollet, M. Torrent, A. Roy, M. Mikami, Ph. Ghosez, J.-Y. Raty, D.C. Allan.
- Computational Materials Science 25, 478-492 (2002). http://dx.doi.org/10.1016/S0927-0256(02)00325-7
- Comment : the original paper describing the ABINIT project.
- DOI and bibtex : see https://docs.abinit.org/theory/bibliography/#gonze2002
-
- Proc.   0 individual time (sec): cpu=          3.4  wall=          3.8
 
================================================================================
 
 Calculation completed.
.Delivered  11 WARNINGs and  15 COMMENTs to log file.
+Overall time at end (sec) : cpu=          3.4  wall=          3.8
